#FLiNa 100 atoms 2,1,1 ratios

100  atoms
0  bonds
0  angles
0  dihedrals
0  impropers

3  atom types
0  bond types
0  angle types
0  dihedral types
0  improper types

0.0 11.651294959841954 xlo xhi
0.0 11.651294959841954 ylo yhi
0.0 11.651294959841954 zlo zhi

Masses

1 18.998403163    # F
2 6.938           # Li
3 22.989769       # Na

Atoms # 

1 1 6.856 4.367 10.535
2 1 4.055 10.038 2.873
3 1 9.947 7.93 2.696
4 1 5.9 6.036 9.242
5 1 10.168 2.946 0.942
6 1 1.335 8.964 9.52 
7 1 6.353 1.037 2.744
8 1 7.456 7.989 2.29 
9 1 8.176 10.099 2.794
10 1 7.913 4.584 5.73 
11 1 4.412 3.696 6.252
12 1 2.465 6.454 4.427
13 1 7 10.588 7.796
14 1 0.762 2.573 4.83 
15 1 3.563 1.472 4.153
16 1 9.939 10.611 9.146
17 1 4.175 2.3 1.803
18 1 1.034 4.98 7.547
19 1 2.37 3.841 3.134
20 1 4.33 8.217 5.081
21 1 1.675 9.565 6.238
22 1 6.44 3.396 0.811
23 1 5.549 5.556 5.037
24 1 7.502 9.369 5.162
25 1 8.506 4.377 2.948
26 1 0.631 6.246 5.59 
27 1 9.051 1.629 5.932
28 1 7.627 2.153 10.38 
29 1 7.985 6.342 8.748
30 1 9.501 7.864 5.209
31 1 6.476 7.733 7.233
32 1 0.404 0.182 2.855
33 1 0.964 0.072 5.838
34 1 8.85 8.38 7.818
35 1 0.219 4.355 2.786
36 1 7.672 3.866 8.174
37 1 0.35 4.805 0.734
38 1 10.503 4.842 2.463
39 1 4.546 9.119 10.128
40 1 9.11 -0.037 4.211
41 1 1.024 9.34 3.442
42 1 10.118 1.366 9.43 
43 1 0.373 2.584 8.196
44 1 1.788 0.344 0.926
45 1 3.756 6.182 10.239
46 1 4.111 5.445 3.111
47 1 6.02 0.326 0.267
48 1 3.462 3.287 10.576
49 1 2.873 1.064 8.024
50 1 1.886 7.2 7.856
51 3 2.368 10.084 0.346
52 3 4.406 4.005 0.048
53 3 9.688 4.862 6.944
54 3 6.767 3.44 4.199
55 3 3.392 10.624 5.57 
56 3 9.934 3.183 4.108
57 3 1.986 5.805 1.921
58 3 8.015 1.704 0.354
59 3 10.439 0.149 6.731
60 3 4.397 9.174 0.169
61 3 6.15 5.225 7.085
62 3 6.724 2.785 6.671
63 3 6.978 8.737 10.129
64 3 4.516 3.196 8.419
65 3 7.677 6.429 4.236
66 3 2.499 8.568 2.135
67 3 5.788 6.47 1.253
68 3 6.047 0.835 9.884
69 3 9.951 6.767 10.536
70 3 6.557 10.578 0.768
71 3 10.518 6.453 0.801
72 3 8.998 4.064 10.382
73 3 8.54 0.243 2.099
74 3 0.123 3.239 10.319
75 3 8.044 6.354 1.082
76 3 0.663 0.347 9.63 
77 3 0.061 10.599 7.957
78 3 5.113 0.715 6.993
79 3 10.526 0.759 0.556
80 3 0.412 6.97 9.625
81 3 8.972 8.655 0.81 
82 3 3.866 6.201 7.464
83 3 2.72 10.504 8.593
84 3 7.921 0.253 7.298
85 3 9.711 9.995 4.998
86 3 0.871 6.88 0.261
87 3 10.548 3.387 8.337
88 3 0.038 7.315 2.908
89 3 2.285 2.596 0.614
90 3 0.442 9.062 0.606
91 3 4.291 8.367 7.153
92 3 10.574 9.707 7.055
93 3 10.605 10.06 1.087
94 3 5.714 0.961 4.967
95 3 4.406 0.069 2.179
96 3 0.082 2.336 2.088
97 3 2.419 1.483 10.555
98 3 5.183 7.747 2.949
99 3 6.873 8.515 0.066
100 3 9.993 5.309 4.86 