LAMMPS (29 Sep 2021 - Update 2)
OMP_NUM_THREADS environment is not set. Defaulting to 1 thread. (src/comm.cpp:98)
  using 1 OpenMP thread(s) per MPI task
# lmp -in therm.lammps
# Muller-Plathe method via fix thermal_conductivity

# conda activate nequip_cuda10.1
# export CUDA_VISIBLE_DEVICES=2
#   lmp -in run_therm_1200
# nohup lmp -in run_therm_1200 > therm_1200_job.out #job =8154
# 1) Initialization
units metal
dimension 3
newton off on
atom_style atomic
boundary p p p



# 2) System definition
read_data	FNa_1300_100_startpoint.lammps
Reading data file ...
  orthogonal box = (0.0000000 0.0000000 0.0000000) to (11.651295 11.651295 11.651295)
  1 by 1 by 1 MPI processor grid
WARNING: Atom style in data file differs from currently defined atom style (src/read_data.cpp:516)
  reading atoms ...
  100 atoms
  read_data CPU = 0.001 seconds
change_box all x final 0 11.471171944527095 y final 0 11.471171944527095 z final 0 11.471171944527095 remap
Changing box ...
  orthogonal box = (0.0000000 0.0000000 0.0000000) to (11.471172 11.651295 11.651295)
  orthogonal box = (0.0000000 0.0000000 0.0000000) to (11.471172 11.471172 11.651295)
  orthogonal box = (0.0000000 0.0000000 0.0000000) to (11.471172 11.471172 11.471172)


# 3) Simulation settings
pair_style	nequip
pair_coeff	* * FLiNa_f_pyt10.2 F Li Na #Li F Na

# 4) NPT:
replicate 2 3 4
Replicating atoms ...
  orthogonal box = (0.0000000 0.0000000 0.0000000) to (22.942344 34.413516 45.884688)
  1 by 1 by 1 MPI processor grid
  2400 atoms
  replicate CPU = 0.001 seconds

thermo 1
minimize 1.00e-9 1.0e-9 1000 10000000
WARNING: Using 'neigh_modify every 1 delay 0 check yes' setting during minimization (src/min.cpp:188)
Neighbor list info ...
  update every 1 steps, delay 0 steps, check yes
  max neighbors/atom: 2000, page size: 100000
  master list distance cutoff = 7
  ghost atom cutoff = 7
  binsize = 3.5, bins = 7 10 14
  1 neighbor lists, perpetual/occasional/extra = 1 0 0
  (1) pair nequip, perpetual
      attributes: full, newton off
      pair build: full/bin/atomonly
      stencil: full/bin/3d
      bin: standard
Per MPI rank memory allocation (min/avg/max) = 5.111 | 5.111 | 5.111 Mbytes
Step Temp E_pair E_mol TotEng Press 
       0            0   -6777.4312            0   -6777.4312            0 
       1            0   -7050.4385            0   -7050.4385            0 
       2            0   -7306.3164            0   -7306.3164            0 
       3            0   -7514.5537            0   -7514.5537            0 
       4            0   -7702.4399            0   -7702.4399            0 
       5            0    -7875.437            0    -7875.437            0 
       6            0   -8036.8032            0   -8036.8032            0 
       7            0   -8189.2837            0   -8189.2837            0 
       8            0   -8335.0635            0   -8335.0635            0 
       9            0   -8476.8779            0   -8476.8779            0 
      10            0   -8616.8018            0   -8616.8018            0 
      11            0   -8756.8408            0   -8756.8408            0 
      12            0   -8893.0146            0   -8893.0146            0 
      13            0   -9018.1035            0   -9018.1035            0 
      14            0   -9131.4795            0   -9131.4795            0 
      15            0   -9239.4639            0   -9239.4639            0 
      16            0   -9347.8076            0   -9347.8076            0 
      17            0   -9457.3008            0   -9457.3008            0 
      18            0    -9548.625            0    -9548.625            0 
      19            0   -9629.4141            0   -9629.4141            0 
      20            0   -9702.5537            0   -9702.5537            0 
      21            0   -9763.7324            0   -9763.7324            0 
      22            0   -9819.7695            0   -9819.7695            0 
      23            0   -9873.3008            0   -9873.3008            0 
      24            0    -9920.251            0    -9920.251            0 
      25            0   -9961.3174            0   -9961.3174            0 
      26            0   -9997.3672            0   -9997.3672            0 
      27            0   -10028.591            0   -10028.591            0 
      28            0   -10055.335            0   -10055.335            0 
      29            0   -10078.487            0   -10078.487            0 
      30            0   -10099.147            0   -10099.147            0 
      31            0   -10117.737            0   -10117.737            0 
      32            0   -10134.628            0   -10134.628            0 
      33            0    -10150.41            0    -10150.41            0 
      34            0   -10165.564            0   -10165.564            0 
      35            0   -10180.884            0   -10180.884            0 
      36            0   -10199.063            0   -10199.063            0 
      37            0   -10218.412            0   -10218.412            0 
      38            0    -10232.23            0    -10232.23            0 
      39            0   -10243.179            0   -10243.179            0 
      40            0   -10253.744            0   -10253.744            0 
      41            0    -10257.62            0    -10257.62            0 
      42            0   -10266.222            0   -10266.222            0 
      43            0   -10275.509            0   -10275.509            0 
      44            0   -10283.358            0   -10283.358            0 
      45            0   -10289.614            0   -10289.614            0 
      46            0   -10295.521            0   -10295.521            0 
      47            0   -10301.207            0   -10301.207            0 
      48            0   -10305.972            0   -10305.972            0 
      49            0   -10310.031            0   -10310.031            0 
      50            0   -10313.825            0   -10313.825            0 
      51            0   -10317.638            0   -10317.638            0 
      52            0   -10320.796            0   -10320.796            0 
      53            0   -10324.426            0   -10324.426            0 
      54            0   -10327.523            0   -10327.523            0 
      55            0   -10330.889            0   -10330.889            0 
      56            0   -10335.234            0   -10335.234            0 
      57            0   -10338.239            0   -10338.239            0 
      58            0   -10341.444            0   -10341.444            0 
      59            0   -10344.387            0   -10344.387            0 
      60            0   -10347.327            0   -10347.327            0 
      61            0   -10350.229            0   -10350.229            0 
      62            0   -10352.597            0   -10352.597            0 
      63            0   -10354.997            0   -10354.997            0 
      64            0   -10356.872            0   -10356.872            0 
      65            0   -10359.638            0   -10359.638            0 
      66            0   -10361.479            0   -10361.479            0 
      67            0   -10363.144            0   -10363.144            0 
      68            0   -10365.252            0   -10365.252            0 
      69            0   -10367.287            0   -10367.287            0 
      70            0   -10369.293            0   -10369.293            0 
      71            0   -10371.512            0   -10371.512            0 
      72            0   -10373.786            0   -10373.786            0 
      73            0    -10375.96            0    -10375.96            0 
      74            0   -10377.728            0   -10377.728            0 
      75            0   -10379.522            0   -10379.522            0 
      76            0   -10381.864            0   -10381.864            0 
      77            0   -10384.312            0   -10384.312            0 
      78            0   -10386.674            0   -10386.674            0 
      79            0   -10387.819            0   -10387.819            0 
      80            0   -10388.894            0   -10388.894            0 
      81            0   -10390.595            0   -10390.595            0 
      82            0   -10392.078            0   -10392.078            0 
      83            0   -10393.213            0   -10393.213            0 
      84            0   -10394.101            0   -10394.101            0 
      85            0   -10395.042            0   -10395.042            0 
      86            0   -10395.905            0   -10395.905            0 
      87            0   -10396.529            0   -10396.529            0 
      88            0   -10397.184            0   -10397.184            0 
      89            0   -10397.714            0   -10397.714            0 
      90            0    -10398.27            0    -10398.27            0 
      91            0   -10398.851            0   -10398.851            0 
      92            0   -10399.587            0   -10399.587            0 
      93            0   -10400.408            0   -10400.408            0 
      94            0   -10401.569            0   -10401.569            0 
      95            0    -10402.83            0    -10402.83            0 
      96            0   -10404.231            0   -10404.231            0 
      97            0   -10405.564            0   -10405.564            0 
      98            0   -10406.213            0   -10406.213            0 
      99            0   -10407.105            0   -10407.105            0 
     100            0    -10407.73            0    -10407.73            0 
     101            0   -10408.513            0   -10408.513            0 
     102            0   -10409.445            0   -10409.445            0 
     103            0   -10410.047            0   -10410.047            0 
     104            0   -10410.604            0   -10410.604            0 
     105            0   -10411.179            0   -10411.179            0 
     106            0   -10411.736            0   -10411.736            0 
     107            0   -10412.272            0   -10412.272            0 
     108            0   -10412.733            0   -10412.733            0 
     109            0    -10413.12            0    -10413.12            0 
     110            0   -10413.538            0   -10413.538            0 
     111            0   -10413.846            0   -10413.846            0 
     112            0   -10414.175            0   -10414.175            0 
     113            0   -10414.542            0   -10414.542            0 
     114            0   -10415.089            0   -10415.089            0 
     115            0   -10415.709            0   -10415.709            0 
     116            0   -10416.472            0   -10416.472            0 
     117            0   -10417.327            0   -10417.327            0 
     118            0   -10418.513            0   -10418.513            0 
     119            0   -10420.024            0   -10420.024            0 
     120            0   -10421.734            0   -10421.734            0 
     121            0   -10423.554            0   -10423.554            0 
     122            0   -10425.239            0   -10425.239            0 
     123            0   -10426.846            0   -10426.846            0 
     124            0   -10428.609            0   -10428.609            0 
     125            0   -10430.768            0   -10430.768            0 
     126            0    -10432.53            0    -10432.53            0 
     127            0   -10434.122            0   -10434.122            0 
     128            0   -10435.356            0   -10435.356            0 
     129            0   -10436.471            0   -10436.471            0 
     130            0   -10437.321            0   -10437.321            0 
     131            0   -10438.276            0   -10438.276            0 
     132            0   -10439.392            0   -10439.392            0 
     133            0   -10440.688            0   -10440.688            0 
     134            0     -10442.6            0     -10442.6            0 
     135            0    -10444.45            0    -10444.45            0 
     136            0   -10446.264            0   -10446.264            0 
     137            0   -10448.004            0   -10448.004            0 
     138            0   -10449.629            0   -10449.629            0 
     139            0   -10450.627            0   -10450.627            0 
     140            0   -10452.068            0   -10452.068            0 
     141            0   -10454.203            0   -10454.203            0 
     142            0   -10455.949            0   -10455.949            0 
     143            0   -10457.431            0   -10457.431            0 
     144            0   -10459.324            0   -10459.324            0 
     145            0   -10461.331            0   -10461.331            0 
     146            0    -10463.51            0    -10463.51            0 
     147            0   -10465.308            0   -10465.308            0 
     148            0   -10466.451            0   -10466.451            0 
     149            0    -10467.69            0    -10467.69            0 
     150            0   -10468.673            0   -10468.673            0 
     151            0   -10469.267            0   -10469.267            0 
     152            0   -10469.647            0   -10469.647            0 
     153            0   -10469.961            0   -10469.961            0 
     154            0   -10470.329            0   -10470.329            0 
     155            0   -10470.766            0   -10470.766            0 
     156            0    -10471.28            0    -10471.28            0 
     157            0   -10471.844            0   -10471.844            0 
     158            0   -10472.298            0   -10472.298            0 
     159            0   -10472.734            0   -10472.734            0 
     160            0   -10473.081            0   -10473.081            0 
     161            0   -10473.431            0   -10473.431            0 
     162            0   -10473.751            0   -10473.751            0 
     163            0    -10474.09            0    -10474.09            0 
     164            0    -10474.49            0    -10474.49            0 
     165            0   -10474.909            0   -10474.909            0 
     166            0   -10475.313            0   -10475.313            0 
     167            0   -10475.769            0   -10475.769            0 
     168            0   -10476.212            0   -10476.212            0 
     169            0   -10476.687            0   -10476.687            0 
     170            0   -10477.039            0   -10477.039            0 
     171            0    -10477.35            0    -10477.35            0 
     172            0   -10477.585            0   -10477.585            0 
     173            0   -10477.849            0   -10477.849            0 
     174            0   -10478.142            0   -10478.142            0 
     175            0   -10478.524            0   -10478.524            0 
     176            0   -10479.028            0   -10479.028            0 
     177            0   -10479.649            0   -10479.649            0 
     178            0   -10480.407            0   -10480.407            0 
     179            0   -10481.219            0   -10481.219            0 
     180            0   -10481.965            0   -10481.965            0 
     181            0   -10482.607            0   -10482.607            0 
     182            0   -10483.252            0   -10483.252            0 
     183            0   -10483.779            0   -10483.779            0 
     184            0   -10484.336            0   -10484.336            0 
     185            0   -10484.762            0   -10484.762            0 
     186            0   -10485.192            0   -10485.192            0 
     187            0   -10485.642            0   -10485.642            0 
     188            0    -10485.93            0    -10485.93            0 
     189            0   -10486.338            0   -10486.338            0 
     190            0   -10486.909            0   -10486.909            0 
     191            0   -10487.408            0   -10487.408            0 
     192            0   -10488.045            0   -10488.045            0 
     193            0   -10488.546            0   -10488.546            0 
     194            0   -10489.086            0   -10489.086            0 
     195            0   -10489.735            0   -10489.735            0 
     196            0   -10490.377            0   -10490.377            0 
     197            0   -10491.057            0   -10491.057            0 
     198            0   -10491.689            0   -10491.689            0 
     199            0   -10492.057            0   -10492.057            0 
     200            0   -10492.621            0   -10492.621            0 
     201            0   -10493.168            0   -10493.168            0 
     202            0   -10493.683            0   -10493.683            0 
     203            0    -10494.43            0    -10494.43            0 
     204            0    -10495.09            0    -10495.09            0 
     205            0   -10495.782            0   -10495.782            0 
     206            0   -10496.542            0   -10496.542            0 
     207            0   -10497.234            0   -10497.234            0 
     208            0   -10497.868            0   -10497.868            0 
     209            0   -10498.836            0   -10498.836            0 
     210            0   -10499.434            0   -10499.434            0 
     211            0   -10499.996            0   -10499.996            0 
     212            0   -10500.598            0   -10500.598            0 
     213            0   -10501.344            0   -10501.344            0 
     214            0   -10501.837            0   -10501.837            0 
     215            0   -10502.342            0   -10502.342            0 
     216            0   -10502.811            0   -10502.811            0 
     217            0   -10503.419            0   -10503.419            0 
     218            0   -10504.146            0   -10504.146            0 
     219            0   -10504.904            0   -10504.904            0 
     220            0    -10505.67            0    -10505.67            0 
     221            0   -10506.252            0   -10506.252            0 
     222            0   -10507.029            0   -10507.029            0 
     223            0   -10508.022            0   -10508.022            0 
     224            0   -10508.654            0   -10508.654            0 
     225            0   -10509.331            0   -10509.331            0 
     226            0    -10509.95            0    -10509.95            0 
     227            0   -10510.624            0   -10510.624            0 
     228            0   -10511.382            0   -10511.382            0 
     229            0   -10512.252            0   -10512.252            0 
     230            0   -10513.116            0   -10513.116            0 
     231            0   -10513.989            0   -10513.989            0 
     232            0   -10514.854            0   -10514.854            0 
     233            0   -10515.771            0   -10515.771            0 
     234            0   -10516.698            0   -10516.698            0 
     235            0   -10517.673            0   -10517.673            0 
     236            0   -10518.707            0   -10518.707            0 
     237            0   -10519.721            0   -10519.721            0 
     238            0   -10520.796            0   -10520.796            0 
     239            0   -10521.886            0   -10521.886            0 
     240            0   -10522.943            0   -10522.943            0 
     241            0   -10524.053            0   -10524.053            0 
     242            0   -10525.153            0   -10525.153            0 
     243            0   -10526.254            0   -10526.254            0 
     244            0   -10527.476            0   -10527.476            0 
     245            0   -10528.642            0   -10528.642            0 
     246            0   -10529.789            0   -10529.789            0 
     247            0   -10530.858            0   -10530.858            0 
     248            0   -10531.872            0   -10531.872            0 
     249            0   -10532.801            0   -10532.801            0 
     250            0   -10533.714            0   -10533.714            0 
     251            0   -10534.507            0   -10534.507            0 
     252            0   -10535.229            0   -10535.229            0 
     253            0   -10535.868            0   -10535.868            0 
     254            0    -10536.45            0    -10536.45            0 
     255            0   -10537.033            0   -10537.033            0 
     256            0    -10537.69            0    -10537.69            0 
     257            0   -10538.445            0   -10538.445            0 
     258            0   -10539.252            0   -10539.252            0 
     259            0   -10539.816            0   -10539.816            0 
     260            0   -10540.238            0   -10540.238            0 
     261            0     -10540.6            0     -10540.6            0 
     262            0   -10540.922            0   -10540.922            0 
     263            0   -10541.224            0   -10541.224            0 
     264            0   -10541.509            0   -10541.509            0 
     265            0   -10541.862            0   -10541.862            0 
     266            0   -10542.244            0   -10542.244            0 
     267            0   -10542.603            0   -10542.603            0 
     268            0   -10542.911            0   -10542.911            0 
     269            0   -10543.203            0   -10543.203            0 
     270            0   -10543.499            0   -10543.499            0 
     271            0   -10543.772            0   -10543.772            0 
     272            0   -10544.082            0   -10544.082            0 
     273            0   -10544.485            0   -10544.485            0 
     274            0    -10544.86            0    -10544.86            0 
     275            0   -10545.173            0   -10545.173            0 
     276            0   -10545.466            0   -10545.466            0 
     277            0   -10545.779            0   -10545.779            0 
     278            0   -10545.989            0   -10545.989            0 
     279            0   -10546.191            0   -10546.191            0 
     280            0   -10546.396            0   -10546.396            0 
     281            0   -10546.574            0   -10546.574            0 
     282            0   -10546.762            0   -10546.762            0 
     283            0   -10546.936            0   -10546.936            0 
     284            0   -10547.139            0   -10547.139            0 
     285            0   -10547.338            0   -10547.338            0 
     286            0   -10547.608            0   -10547.608            0 
     287            0   -10547.891            0   -10547.891            0 
     288            0   -10548.133            0   -10548.133            0 
     289            0    -10548.34            0    -10548.34            0 
     290            0   -10548.603            0   -10548.603            0 
     291            0   -10548.913            0   -10548.913            0 
     292            0   -10549.011            0   -10549.011            0 
     293            0   -10549.191            0   -10549.191            0 
     294            0   -10549.375            0   -10549.375            0 
     295            0   -10549.578            0   -10549.578            0 
     296            0     -10549.7            0     -10549.7            0 
     297            0   -10549.844            0   -10549.844            0 
     298            0   -10550.004            0   -10550.004            0 
     299            0   -10550.183            0   -10550.183            0 
     300            0   -10550.339            0   -10550.339            0 
     301            0   -10550.451            0   -10550.451            0 
     302            0   -10550.655            0   -10550.655            0 
     303            0   -10550.854            0   -10550.854            0 
     304            0   -10551.002            0   -10551.002            0 
     305            0   -10551.136            0   -10551.136            0 
     306            0   -10551.262            0   -10551.262            0 
     307            0    -10551.42            0    -10551.42            0 
     308            0   -10551.634            0   -10551.634            0 
     309            0   -10551.718            0   -10551.718            0 
     310            0   -10551.791            0   -10551.791            0 
     311            0   -10551.885            0   -10551.885            0 
     312            0   -10551.984            0   -10551.984            0 
     313            0   -10552.073            0   -10552.073            0 
     314            0   -10552.192            0   -10552.192            0 
     315            0   -10552.307            0   -10552.307            0 
     316            0   -10552.438            0   -10552.438            0 
     317            0   -10552.551            0   -10552.551            0 
     318            0   -10552.632            0   -10552.632            0 
     319            0   -10552.697            0   -10552.697            0 
     320            0    -10552.77            0    -10552.77            0 
     321            0   -10552.786            0   -10552.786            0 
     322            0   -10552.869            0   -10552.869            0 
     323            0   -10552.963            0   -10552.963            0 
     324            0    -10553.12            0    -10553.12            0 
     325            0   -10553.255            0   -10553.255            0 
     326            0   -10553.388            0   -10553.388            0 
     327            0   -10553.521            0   -10553.521            0 
     328            0   -10553.656            0   -10553.656            0 
     329            0   -10553.837            0   -10553.837            0 
     330            0   -10554.105            0   -10554.105            0 
     331            0   -10554.296            0   -10554.296            0 
     332            0   -10554.473            0   -10554.473            0 
     333            0   -10554.593            0   -10554.593            0 
     334            0   -10554.752            0   -10554.752            0 
     335            0   -10554.955            0   -10554.955            0 
     336            0   -10555.158            0   -10555.158            0 
     337            0   -10555.315            0   -10555.315            0 
     338            0    -10555.44            0    -10555.44            0 
     339            0   -10555.599            0   -10555.599            0 
     340            0   -10555.739            0   -10555.739            0 
     341            0    -10555.85            0    -10555.85            0 
     342            0   -10555.948            0   -10555.948            0 
     343            0   -10556.045            0   -10556.045            0 
     344            0   -10556.146            0   -10556.146            0 
     345            0   -10556.278            0   -10556.278            0 
     346            0   -10556.436            0   -10556.436            0 
     347            0   -10556.562            0   -10556.562            0 
     348            0   -10556.689            0   -10556.689            0 
     349            0   -10556.827            0   -10556.827            0 
     350            0   -10556.946            0   -10556.946            0 
     351            0   -10557.064            0   -10557.064            0 
     352            0   -10557.171            0   -10557.171            0 
     353            0   -10557.271            0   -10557.271            0 
     354            0   -10557.336            0   -10557.336            0 
     355            0   -10557.413            0   -10557.413            0 
     356            0   -10557.441            0   -10557.441            0 
     357            0   -10557.509            0   -10557.509            0 
     358            0    -10557.58            0    -10557.58            0 
     359            0   -10557.699            0   -10557.699            0 
     360            0   -10557.762            0   -10557.762            0 
     361            0   -10557.825            0   -10557.825            0 
     362            0   -10557.931            0   -10557.931            0 
     363            0   -10558.025            0   -10558.025            0 
     364            0   -10558.112            0   -10558.112            0 
     365            0   -10558.252            0   -10558.252            0 
     366            0   -10558.319            0   -10558.319            0 
     367            0   -10558.394            0   -10558.394            0 
     368            0   -10558.504            0   -10558.504            0 
     369            0   -10558.562            0   -10558.562            0 
     370            0   -10558.638            0   -10558.638            0 
     371            0   -10558.716            0   -10558.716            0 
     372            0   -10558.765            0   -10558.765            0 
     373            0   -10558.806            0   -10558.806            0 
     374            0   -10558.911            0   -10558.911            0 
     375            0   -10558.982            0   -10558.982            0 
     376            0   -10559.065            0   -10559.065            0 
     377            0   -10559.108            0   -10559.108            0 
     378            0   -10559.143            0   -10559.143            0 
     379            0   -10559.166            0   -10559.166            0 
     380            0   -10559.216            0   -10559.216            0 
     381            0   -10559.229            0   -10559.229            0 
     382            0   -10559.275            0   -10559.275            0 
     383            0   -10559.289            0   -10559.289            0 
     384            0   -10559.311            0   -10559.311            0 
     385            0   -10559.316            0   -10559.316            0 
     386            0   -10559.339            0   -10559.339            0 
     387            0   -10559.373            0   -10559.373            0 
     388            0   -10559.424            0   -10559.424            0 
     389            0   -10559.478            0   -10559.478            0 
     390            0   -10559.543            0   -10559.543            0 
     391            0   -10559.612            0   -10559.612            0 
     392            0   -10559.689            0   -10559.689            0 
     393            0   -10559.797            0   -10559.797            0 
     394            0   -10559.916            0   -10559.916            0 
     395            0   -10559.996            0   -10559.996            0 
     396            0   -10560.088            0   -10560.088            0 
     397            0   -10560.159            0   -10560.159            0 
     398            0   -10560.223            0   -10560.223            0 
     399            0   -10560.266            0   -10560.266            0 
     400            0   -10560.317            0   -10560.317            0 
     401            0   -10560.394            0   -10560.394            0 
     402            0   -10560.459            0   -10560.459            0 
     403            0   -10560.521            0   -10560.521            0 
     404            0    -10560.58            0    -10560.58            0 
     405            0   -10560.613            0   -10560.613            0 
     406            0   -10560.623            0   -10560.623            0 
     407            0   -10560.626            0   -10560.626            0 
     408            0   -10560.657            0   -10560.657            0 
     409            0   -10560.663            0   -10560.663            0 
     410            0   -10560.666            0   -10560.666            0 
     411            0     -10560.7            0     -10560.7            0 
     412            0   -10560.722            0   -10560.722            0 
     413            0   -10560.777            0   -10560.777            0 
     414            0   -10560.818            0   -10560.818            0 
     415            0   -10560.855            0   -10560.855            0 
     416            0   -10560.887            0   -10560.887            0 
     417            0   -10560.925            0   -10560.925            0 
     418            0    -10560.94            0    -10560.94            0 
     419            0   -10560.965            0   -10560.965            0 
     420            0   -10560.968            0   -10560.968            0 
     421            0   -10560.971            0   -10560.971            0 
Loop time of 121.13 on 1 procs for 421 steps with 2400 atoms

94.6% CPU use with 1 MPI tasks x 1 OpenMP threads

Minimization stats:
  Stopping criterion = energy tolerance
  Energy initial, next-to-last, final = 
     -6777.43115234375  -10560.9677734375   -10560.970703125
  Force two-norm initial, final = 189.07415 0.24487353
  Force max component initial, final = 9.9351892 0.070766777
  Final line search alpha, max atom move = 5.9252340e-06 4.1930971e-07
  Iterations, force evaluations = 421 604

MPI task timing breakdown:
Section |  min time  |  avg time  |  max time  |%varavg| %total
---------------------------------------------------------------
Pair    | 120.71     | 120.71     | 120.71     |   0.0 | 99.66
Neigh   | 0.31303    | 0.31303    | 0.31303    |   0.0 |  0.26
Comm    | 0.03364    | 0.03364    | 0.03364    |   0.0 |  0.03
Output  | 0.013129   | 0.013129   | 0.013129   |   0.0 |  0.01
Modify  | 0          | 0          | 0          |   0.0 |  0.00
Other   |            | 0.05544    |            |       |  0.05

Nlocal:        2400.00 ave        2400 max        2400 min
Histogram: 1 0 0 0 0 0 0 0 0 0
Nghost:        4779.00 ave        4779 max        4779 min
Histogram: 1 0 0 0 0 0 0 0 0 0
Neighs:         0.00000 ave           0 max           0 min
Histogram: 1 0 0 0 0 0 0 0 0 0
FullNghs:      216386.0 ave      216386 max      216386 min
Histogram: 1 0 0 0 0 0 0 0 0 0

Total # of neighbors = 216386
Ave neighs/atom = 90.160833
Neighbor list builds = 28
Dangerous builds = 0


timestep .001 # fetmoseconds
variable Tsim equal 1200 # Kelvin
velocity all create ${Tsim} 12335
velocity all create 1200 12335

#-------------------------------------------
# 1st equilibration run
fix 1 all nvt temp ${Tsim} ${Tsim} $(100.0*dt)
fix 1 all nvt temp 1200 ${Tsim} $(100.0*dt)
fix 1 all nvt temp 1200 1200 $(100.0*dt)
fix 1 all nvt temp 1200 1200 0.10000000000000000555
thermo          100
reset_timestep 0
run 50000
Per MPI rank memory allocation (min/avg/max) = 3.987 | 3.987 | 3.987 Mbytes
Step Temp E_pair E_mol TotEng Press 
       0         1200   -10560.973            0   -10188.859    10971.364 
     100    632.50042   -10358.839            0   -10162.704    5782.8269 
     200    708.42682   -10333.502            0   -10113.822     6477.007 
     300    809.47438   -10306.187            0   -10055.172     7400.865 
     400    895.24695   -10268.276            0   -9990.6647    8185.0668 
     500    1009.0795   -10236.788            0   -9923.8775    9225.8153 
     600    1109.6616   -10203.973            0   -9859.8721    10145.417 
     700    1200.3899   -10176.287            0   -9804.0521    10974.928 
     800    1222.7965   -10144.651            0   -9765.4682    11179.788 
     900    1238.2868   -10137.179            0   -9753.1921    11321.413 
    1000    1210.8297   -10143.268            0   -9767.7952    11070.378 
    1100    1162.9524   -10146.432            0   -9785.8058    10632.645 
    1200    1160.4065    -10147.49            0   -9787.6539    10609.368 
    1300     1210.777   -10148.484            0   -9773.0284    11069.896 
    1400    1222.2581   -10136.896            0   -9757.8793    11174.866 
    1500    1228.3103   -10132.156            0   -9751.2633    11230.199 
    1600    1236.1189   -10144.777            0    -9761.463    11301.591 
    1700    1176.2859   -10144.147            0    -9779.387     10754.55 
    1800    1205.3338   -10159.647            0   -9785.8794     11020.13 
    1900    1182.2823   -10147.349            0   -9780.7287    10809.374 
    2000    1214.7029   -10142.126            0   -9765.4526     11105.79 
    2100    1198.1726   -10125.574            0   -9754.0268    10954.657 
    2200     1203.977   -10119.703            0   -9746.3558    11007.725 
    2300    1220.0667   -10121.288            0   -9742.9514     11154.83 
    2400    1209.4316   -10128.042            0   -9753.0032    11057.595 
    2500    1210.9181   -10140.666            0   -9765.1663    11071.186 
    2600    1151.1885    -10132.77            0   -9775.7916     10525.09 
    2700    1185.1699   -10137.385            0   -9769.8694    10835.775 
    2800     1190.103   -10125.378            0   -9756.3328    10880.877 
    2900    1209.9572   -10121.839            0   -9746.6371      11062.4 
    3000    1227.1636   -10128.648            0    -9748.111    11219.715 
    3100    1177.1141   -10125.687            0   -9760.6692    10762.123 
    3200     1195.993   -10141.955            0   -9771.0835    10934.729 
    3300     1177.725   -10140.793            0   -9775.5862    10767.708 
    3400    1194.7428    -10139.07            0   -9768.5864    10923.298 
    3500    1191.9028   -10129.528            0   -9759.9251    10897.333 
    3600    1202.4092   -10132.389            0   -9759.5275    10993.391 
    3700    1190.0605   -10139.561            0   -9770.5286    10880.489 
    3800    1176.1505   -10143.505            0   -9778.7864    10753.312 
    3900    1190.6878   -10147.208            0   -9777.9816    10886.224 
    4000    1212.2121   -10147.296            0   -9771.3949    11083.017 
    4100    1214.6151    -10143.81            0   -9767.1634    11104.987 
    4200    1177.3965     -10135.8            0   -9770.6949    10764.705 
    4300    1173.4223   -10133.736            0   -9769.8638    10728.369 
    4400    1218.9764   -10143.976            0    -9765.977    11144.861 
    4500    1198.8675   -10143.118            0   -9771.3553    10961.009 
    4600    1198.1872   -10149.403            0   -9777.8514     10954.79 
    4700    1202.6608   -10156.741            0    -9783.802    10995.691 
    4800    1190.1032    -10148.65            0   -9779.6052     10880.88 
    4900    1214.4102   -10148.406            0   -9771.8236    11103.113 
    5000    1214.4347   -10146.358            0   -9769.7682    11103.337 
    5100    1174.2092   -10140.222            0   -9776.1052    10735.564 
    5200    1200.0331   -10155.729            0   -9783.6051    10971.666 
    5300    1192.0212   -10157.765            0   -9788.1247    10898.415 
    5400    1203.7665   -10162.053            0   -9788.7706      11005.8 
    5500    1172.8325   -10155.275            0   -9791.5858    10722.977 
    5600     1173.717     -10153.4            0   -9789.4365    10731.063 
    5700    1212.4383   -10155.518            0   -9779.5464    11085.085 
    5800    1189.7019   -10149.558            0   -9780.6369    10877.211 
    5900     1195.374   -10160.268            0    -9789.588     10929.07 
    6000    1180.3008    -10169.65            0   -9803.6449    10791.258 
    6100    1175.5905   -10168.502            0   -9803.9571    10748.192 
    6200     1191.458   -10165.437            0   -9795.9712    10893.267 
    6300    1218.8463   -10167.655            0    -9789.697    11143.672 
    6400    1196.0389   -10160.026            0   -9789.1406    10935.149 
    6500    1151.9749   -10149.449            0   -9792.2275     10532.28 
    6600    1197.9634   -10164.218            0   -9792.7352    10952.743 
    6700    1202.8683   -10171.675            0   -9798.6712    10997.588 
    6800    1183.6742   -10174.614            0   -9807.5627      10822.1 
    6900    1172.6298    -10172.97            0    -9809.343    10721.123 
    7000    1223.1925   -10171.917            0    -9792.611    11183.408 
    7100    1193.8429   -10159.306            0   -9789.1008    10915.071 
    7200    1222.3992   -10171.553            0   -9792.4927    11176.155 
    7300    1173.6563   -10166.961            0   -9803.0159    10730.509 
    7400    1204.4536   -10181.134            0   -9807.6386    11012.082 
    7500    1183.1672   -10180.419            0   -9813.5246    10817.465 
    7600     1165.589   -10184.543            0   -9823.0996    10656.751 
    7700    1208.4138   -10186.683            0   -9811.9594     11048.29 
    7800    1215.5138   -10179.943            0   -9803.0185    11113.204 
    7900    1177.7464   -10166.517            0   -9801.3032    10767.903 
    8000    1199.1764   -10168.984            0   -9797.1257    10963.834 
    8100    1212.8459   -10167.512            0   -9791.4142    11088.811 
    8200    1228.9675   -10168.702            0   -9787.6054    11236.208 
    8300    1205.8955   -10169.899            0   -9795.9571    11025.265 
    8400    1211.3609   -10182.343            0   -9806.7057    11075.234 
    8500    1175.1542   -10173.339            0   -9808.9293    10744.204 
    8600    1178.6733   -10164.977            0   -9799.4758    10776.378 
    8700    1233.5815   -10165.871            0   -9783.3435    11278.393 
    8800    1202.0953   -10161.821            0   -9789.0574    10990.521 
    8900    1225.3748   -10178.772            0   -9798.7898    11203.361 
    9000    1198.8842   -10181.634            0   -9809.8657    10961.162 
    9100      1190.45     -10179.9            0   -9810.7477     10884.05 
    9200    1219.2461   -10180.205            0   -9802.1229    11147.327 
    9300    1228.2111   -10180.731            0   -9799.8692    11229.292 
    9400     1187.372   -10184.646            0   -9816.4473    10855.909 
    9500    1199.0824   -10196.407            0   -9824.5777    10962.975 
    9600    1220.9868   -10196.236            0   -9817.6143    11163.242 
    9700    1206.1384   -10188.617            0   -9814.5996    11027.486 
    9800    1181.9142   -10189.669            0   -9823.1632    10806.009 
    9900    1162.5901   -10192.492            0   -9831.9787    10629.332 
   10000    1157.8111   -10198.368            0   -9839.3366    10585.639 
   10100    1208.1683   -10203.335            0   -9828.6879    11046.045 
   10200    1237.6568   -10200.914            0   -9817.1228    11315.653 
   10300    1219.6885   -10195.753            0   -9817.5335    11151.372 
   10400     1209.494   -10200.946            0   -9825.8882    11058.165 
   10500    1177.4476    -10205.59            0   -9840.4691    10765.172 
   10600    1180.3335   -10206.991            0   -9840.9756    10791.557 
   10700    1181.3311   -10202.457            0   -9836.1321    10800.678 
   10800    1192.6186   -10199.159            0    -9829.334    10903.877 
   10900    1205.9675    -10193.09            0   -9819.1252    11025.924 
   11000     1224.538   -10197.218            0   -9817.4946     11195.71 
   11100    1207.5904   -10198.538            0   -9824.0702    11040.762 
   11200    1191.2117   -10200.257            0   -9830.8679    10891.014 
   11300    1176.0717   -10198.177            0   -9833.4827    10752.592 
   11400    1205.5986   -10197.871            0   -9824.0209    11022.551 
   11500      1215.05       -10196            0    -9819.219    11108.963 
   11600    1216.1607   -10203.099            0   -9825.9732    11119.118 
   11700    1172.5093   -10200.026            0    -9836.437    10720.022 
   11800    1201.0891   -10211.339            0   -9838.8871    10981.321 
   11900    1188.5595   -10202.473            0   -9833.9062    10866.766 
   12000    1211.8505   -10193.856            0   -9818.0676     11079.71 
   12100    1227.0999   -10198.287            0   -9817.7694    11219.133 
   12200    1208.9164    -10201.42            0   -9826.5409    11052.884 
   12300    1202.2185   -10204.797            0   -9831.9948    10991.648 
   12400    1203.9807    -10208.31            0   -9834.9611    11007.759 
   12500    1189.5311   -10207.145            0   -9838.2768    10875.649 
   12600    1190.0389    -10208.73            0   -9839.7053    10880.291 
   12700    1215.0455   -10209.037            0   -9832.2575    11108.922 
   12800    1215.7844   -10202.256            0   -9825.2471    11115.678 
   12900    1192.0512   -10198.688            0   -9829.0392     10898.69 
   13000    1192.0456   -10209.018            0   -9839.3701    10898.638 
   13100    1212.7237   -10220.388            0    -9844.328    11087.694 
   13200    1179.5665   -10220.032            0   -9854.2544    10784.545 
   13300    1143.5983   -10221.866            0    -9867.242    10455.695 
   13400    1182.8714    -10223.46            0   -9856.6573    10814.761 
   13500     1189.936   -10215.247            0   -9846.2538    10879.351 
   13600    1206.1349   -10213.442            0   -9839.4259    11027.454 
   13700    1201.2298   -10206.804            0   -9834.3083    10982.607 
   13800    1201.2448   -10201.597            0   -9829.0966    10982.745 
   13900    1204.9991   -10210.512            0   -9836.8474     11017.07 
   14000    1176.3812   -10217.109            0   -9852.3193    10755.422 
   14100    1184.9969   -10217.737            0   -9850.2756    10834.194 
   14200    1190.1934    -10209.29            0   -9840.2169    10881.704 
   14300    1250.0775   -10218.103            0   -9830.4597    11429.213 
   14400    1215.2468   -10209.977            0   -9833.1345    11110.763 
   14500    1199.4186   -10212.027            0   -9840.0935    10966.048 
   14600    1176.9206    -10211.37            0   -9846.4128    10760.353 
   14700    1195.3191   -10216.247            0   -9845.5845    10928.567 
   14800    1208.3002   -10208.116            0   -9833.4283    11047.251 
   14900    1216.9329   -10197.174            0   -9819.8089    11126.178 
   15000     1198.038   -10201.862            0   -9830.3566    10953.425 
   15100    1196.1587    -10212.88            0   -9841.9569    10936.244 
   15200    1201.5003   -10218.631            0   -9846.0515    10985.081 
   15300    1224.4455   -10226.327            0   -9846.6326    11194.864 
   15400    1200.0431   -10221.184            0   -9849.0561    10971.758 
   15500    1198.3058   -10219.339            0   -9847.7501    10955.874 
   15600    1195.0948   -10208.789            0    -9838.196    10926.517 
   15700     1248.862   -10214.708            0    -9827.442      11418.1 
   15800    1207.4724   -10208.191            0   -9833.7602    11039.682 
   15900    1198.0083    -10214.49            0   -9842.9937    10953.155 
   16000    1214.6953   -10221.685            0   -9845.0135     11105.72 
   16100    1177.0851   -10215.162            0   -9850.1538    10761.858 
   16200    1217.7375   -10229.141            0   -9851.5262    11133.534 
   16300     1165.834   -10220.164            0   -9858.6447    10658.991 
   16400    1181.7524   -10233.304            0   -9866.8481    10804.529 
   16500    1193.6821   -10233.599            0   -9863.4437      10913.6 
   16600    1187.4741   -10217.349            0   -9849.1187    10856.842 
   16700    1231.7103   -10224.814            0   -9842.8672    11261.285 
   16800    1219.3075    -10222.21            0   -9844.1087    11147.889 
   16900    1199.0406   -10223.963            0   -9852.1463    10962.592 
   17000     1143.693       -10218            0   -9863.3464     10456.56 
   17100    1176.4211   -10222.742            0   -9857.9398    10755.786 
   17200    1222.4873   -10219.163            0   -9840.0758    11176.961 
   17300    1218.7053   -10215.646            0    -9837.732    11142.383 
   17400    1231.5627   -10227.464            0   -9845.5623    11259.936 
   17500    1178.1343   -10221.647            0   -9856.3138     10771.45 
   17600    1173.2329   -10223.041            0   -9859.2273    10726.638 
   17700    1207.3858   -10227.789            0   -9853.3847    11038.891 
   17800    1199.6025   -10211.387            0   -9839.3959     10967.73 
   17900    1214.3252   -10207.697            0    -9831.141    11102.337 
   18000    1225.7134   -10219.818            0   -9839.7307    11206.456 
   18100     1230.239   -10234.072            0   -9852.5812    11247.834 
   18200     1197.036   -10230.944            0   -9859.7494    10944.265 
   18300      1182.44   -10223.316            0   -9856.6476    10810.817 
   18400    1208.5267   -10216.467            0   -9841.7086    11049.322 
   18500    1209.9082   -10215.624            0   -9840.4374    11061.952 
   18600    1214.1249   -10223.018            0   -9846.5234    11100.505 
   18700    1195.8118   -10226.077            0   -9855.2618    10933.072 
   18800    1172.2121   -10224.472            0   -9860.9745    10717.305 
   18900    1193.8016   -10227.657            0   -9857.4652    10914.693 
   19000     1181.221    -10219.71            0   -9853.4191    10799.672 
   19100    1211.6609   -10223.417            0   -9847.6869    11077.977 
   19200    1222.9841   -10221.799            0   -9842.5575    11181.503 
   19300    1215.4156   -10228.194            0   -9851.2999    11112.305 
   19400    1169.7555   -10228.263            0   -9865.5273    10694.844 
   19500    1185.7835   -10228.417            0   -9860.7113    10841.385 
   19600    1189.0206    -10221.12            0   -9852.4107    10870.981 
   19700    1197.2517   -10219.287            0   -9848.0252    10946.236 
   19800     1205.334   -10215.394            0   -9841.6254    11020.132 
   19900    1238.1338   -10217.296            0   -9833.3567    11320.014 
   20000    1227.9523   -10225.099            0   -9844.3167    11226.926 
   20100    1208.1553   -10231.481            0   -9856.8384    11045.926 
   20200     1175.932   -10227.802            0    -9863.151    10751.315 
   20300    1208.8124   -10232.882            0   -9858.0351    11051.934 
   20400    1212.7169   -10223.282            0   -9847.2247    11087.632 
   20500    1198.2323   -10212.786            0   -9841.2202    10955.202 
   20600    1232.9468   -10231.185            0   -9848.8538     11272.59 
   20700    1174.2698   -10229.656            0    -9865.521    10736.117 
   20800    1218.8943   -10240.578            0    -9862.605    11144.111 
   20900    1180.8866   -10225.372            0   -9859.1849    10796.614 
   21000     1231.618   -10235.071            0   -9853.1526    11260.441 
   21100    1209.3622   -10229.929            0   -9854.9114     11056.96 
   21200    1211.5256   -10233.335            0   -9857.6468    11076.741 
   21300    1183.8962   -10232.949            0   -9865.8288     10824.13 
   21400    1200.0713   -10239.495            0   -9867.3589    10972.016 
   21500    1182.7489   -10226.443            0   -9859.6787    10813.641 
   21600    1240.9029   -10232.886            0   -9848.0878    11345.331 
   21700    1217.0141   -10228.343            0   -9850.9527    11126.921 
   21800      1198.18   -10239.753            0   -9868.2032    10954.724 
   21900    1194.1674   -10237.977            0   -9867.6711    10918.038 
   22000    1189.0139   -10230.008            0   -9861.3004     10870.92 
   22100    1215.2882   -10229.571            0   -9852.7164    11111.141 
   22200    1215.1459   -10229.719            0    -9852.908     11109.84 
   22300    1201.8806   -10237.869            0   -9865.1719    10988.557 
   22400    1171.4262    -10235.45            0   -9872.1967     10710.12 
   22500    1210.8272   -10245.877            0   -9870.4054    11070.354 
   22600    1237.6638   -10244.237            0   -9860.4438    11315.717 
   22700    1175.5887   -10218.242            0   -9853.6979    10748.176 
   22800    1205.9534   -10226.031            0    -9852.071    11025.794 
   22900    1189.4225   -10238.049            0   -9869.2148    10874.656 
   23000    1196.7131   -10245.957            0   -9874.8622    10941.312 
   23100    1176.3842    -10236.37            0   -9871.5791     10755.45 
   23200    1208.1877   -10237.247            0    -9862.594    11046.222 
   23300    1202.0664   -10230.216            0   -9857.4609    10990.257 
   23400    1252.4641   -10236.023            0   -9847.6405    11451.033 
   23500    1197.1921   -10230.276            0    -9859.033    10945.692 
   23600    1197.6317   -10241.321            0   -9869.9416    10949.711 
   23700    1181.5387   -10241.383            0   -9874.9935    10802.576 
   23800    1217.2713   -10249.933            0   -9872.4628    11129.272 
   23900    1195.2175   -10238.758            0   -9868.1267    10927.638 
   24000    1209.6441   -10228.029            0   -9852.9246    11059.538 
   24100     1228.066   -10230.771            0   -9849.9533    11227.966 
   24200    1215.6405   -10241.303            0   -9864.3386    11114.362 
   24300    1191.5445   -10241.884            0   -9872.3917    10894.057 
   24400    1236.6846   -10252.277            0   -9868.7875    11306.764 
   24500    1210.8653   -10244.087            0   -9868.6035    11070.704 
   24600    1217.0837   -10244.259            0   -9866.8471    11127.557 
   24700    1183.4341   -10227.271            0   -9860.2934    10819.905 
   24800    1229.3377   -10235.473            0   -9854.2611    11239.592 
   24900    1219.6476   -10240.886            0    -9862.679    11150.998 
   25000    1171.5356    -10237.08            0   -9873.7926     10711.12 
   25100    1197.3086   -10244.533            0   -9873.2537    10946.757 
   25200    1188.8917   -10239.669            0   -9870.9995    10869.803 
   25300    1212.5466   -10233.423            0   -9857.4181    11086.075 
   25400    1251.6749   -10234.484            0   -9846.3461    11443.818 
   25500    1214.3674   -10235.226            0   -9858.6562    11102.722 
   25600    1174.5823   -10230.713            0   -9866.4807    10738.975 
   25700    1224.0144   -10244.582            0   -9865.0212    11190.923 
   25800    1200.2748   -10237.741            0   -9865.5419    10973.876 
   25900    1208.9534   -10243.052            0   -9868.1612    11053.223 
   26000    1194.5701   -10249.686            0   -9879.2552     10921.72 
   26100    1170.6949   -10245.812            0   -9882.7848    10703.433 
   26200    1196.6927   -10239.457            0   -9868.3685    10941.126 
   26300    1199.5946    -10233.13            0   -9861.1415    10967.657 
   26400    1216.5035   -10239.392            0   -9862.1598    11122.253 
   26500    1188.9594   -10239.301            0   -9870.6103    10870.422 
   26600    1190.5155   -10248.442            0   -9879.2694    10884.649 
   26700    1195.6522   -10260.231            0   -9889.4656    10931.613 
   26800    1154.2282   -10256.036            0   -9898.1156    10552.881 
   26900    1174.6243   -10246.964            0   -9882.7186    10739.359 
   27000    1191.5018   -10241.483            0   -9872.0045    10893.666 
   27100    1212.2862   -10239.826            0   -9863.9022    11083.694 
   27200    1235.0734   -10238.768            0   -9855.7774    11292.033 
   27300    1208.8026   -10240.608            0   -9865.7647    11051.844 
   27400     1193.295   -10245.382            0   -9875.3469    10910.062 
   27500    1217.6159   -10249.808            0   -9872.2309    11132.423 
   27600    1193.2752   -10239.614            0   -9869.5855     10909.88 
   27700    1204.3919   -10236.121            0   -9862.6451    11011.518 
   27800    1254.0604   -10238.782            0   -9849.9042    11465.628 
   27900    1234.2413   -10230.678            0   -9847.9456    11284.425 
   28000    1205.8344   -10240.323            0   -9866.3999    11024.707 
   28100    1172.4064   -10236.123            0   -9872.5656    10719.081 
   28200    1218.1797   -10249.793            0   -9872.0414    11137.577 
   28300    1171.6105   -10239.122            0   -9875.8114    10711.804 
   28400    1178.9702   -10239.665            0   -9874.0722    10779.092 
   28500    1218.7496    -10242.76            0   -9864.8315    11142.787 
   28600    1204.6911   -10231.419            0   -9857.8501    11014.254 
   28700    1214.5767   -10232.788            0   -9856.1538    11104.636 
   28800    1213.3632   -10245.279            0   -9869.0213    11093.541 
   28900    1170.5539   -10243.864            0   -9880.8813    10702.144 
   29000    1189.6292   -10245.735            0   -9876.8372    10876.546 
   29100    1191.6093   -10236.834            0   -9867.3218    10894.649 
   29200    1216.2826   -10237.797            0   -9860.6336    11120.232 
   29300    1197.9983   -10235.415            0   -9863.9217    10953.062 
   29400    1216.4304   -10243.764            0   -9866.5546    11121.584 
   29500    1205.9139   -10237.569            0   -9863.6213    11025.434 
   29600    1213.7965   -10236.136            0   -9859.7434    11097.502 
   29700    1196.5547   -10235.217            0   -9864.1711    10939.864 
   29800    1183.7895   -10243.821            0    -9876.734    10823.154 
   29900    1179.8413   -10245.893            0   -9880.0296    10787.057 
   30000    1181.6687   -10232.034            0   -9865.6045    10803.764 
   30100    1197.2753   -10227.911            0    -9856.642    10946.452 
   30200    1217.8356    -10237.01            0   -9859.3649    11134.431 
   30300    1175.8889   -10228.532            0   -9863.8949    10750.921 
   30400    1186.7106   -10239.175            0   -9871.1817    10849.862 
   30500    1173.3156   -10246.402            0   -9882.5629    10727.394 
   30600    1156.8353   -10243.411            0   -9884.6822    10576.717 
   30700    1207.8815   -10241.842            0   -9867.2837    11043.423 
   30800    1217.3622   -10238.292            0   -9860.7939    11130.103 
   30900    1192.7823   -10235.168            0    -9865.292    10905.374 
   31000    1181.8621   -10241.131            0   -9874.6412    10805.533 
   31100    1192.8381   -10250.581            0   -9880.6878    10905.884 
   31200    1183.1156   -10262.401            0    -9895.523    10816.993 
   31300    1148.9655   -10250.333            0   -9894.0445    10504.765 
   31400    1186.3103   -10247.276            0   -9879.4074    10846.202 
   31500    1214.0683     -10248.1            0    -9871.623    11099.988 
   31600     1199.928   -10239.471            0   -9867.3789    10970.706 
   31700    1235.3433   -10243.146            0   -9860.0716    11294.501 
   31800    1213.9183   -10240.398            0   -9863.9683    11098.617 
   31900    1204.0177    -10252.89            0   -9879.5297    11008.097 
   32000    1167.1142   -10243.533            0   -9881.6168    10670.695 
   32100    1188.6304   -10241.337            0   -9872.7485    10867.414 
   32200    1205.1589    -10243.12            0   -9869.4063    11018.531 
   32300    1190.0442   -10240.594            0   -9871.5669     10880.34 
   32400    1184.7131   -10241.196            0   -9873.8226    10831.598 
   32500    1175.8272   -10237.124            0   -9872.5058    10750.356 
   32600    1213.2569   -10244.779            0   -9868.5543    11092.569 
   32700    1218.3368   -10246.636            0   -9868.8355    11139.014 
   32800    1195.4462   -10242.594            0   -9871.8918    10929.729 
   32900    1215.2352   -10250.295            0   -9873.4564    11110.657 
   33000    1189.1246   -10245.106            0   -9876.3647    10871.932 
   33100    1205.6481   -10242.801            0   -9868.9352    11023.003 
   33200     1220.883   -10241.485            0   -9862.8955    11162.293 
   33300    1225.5134   -10241.564            0   -9861.5388    11204.628 
   33400    1196.4928   -10243.229            0   -9872.2029    10939.298 
   33500    1159.9674   -10244.046            0   -9884.3457    10605.354 
   33600    1160.9807   -10241.407            0   -9881.3928    10614.618 
   33700    1200.8635     -10240.7            0   -9868.3183    10979.259 
   33800    1204.3379   -10239.952            0   -9866.4929    11011.025 
   33900    1194.9151   -10242.255            0   -9871.7176    10924.874 
   34000    1190.3339   -10247.106            0   -9877.9897    10882.989 
   34100    1174.4163   -10243.607            0   -9879.4267    10737.457 
   34200    1242.7425   -10250.357            0   -9864.9891     11362.15 
   34300    1243.9025   -10244.935            0   -9859.2065    11372.756 
   34400    1196.6012   -10238.152            0   -9867.0922    10940.289 
   34500    1176.7708   -10242.737            0   -9877.8265    10758.984 
   34600    1189.7859   -10246.197            0   -9877.2505    10877.978 
   34700    1213.1746   -10248.723            0   -9872.5232    11091.817 
   34800    1190.8375   -10240.266            0   -9870.9928    10887.593 
   34900     1192.985   -10240.506            0   -9870.5671    10907.227 
   35000    1203.1063   -10244.223            0   -9871.1453    10999.764 
   35100    1190.1057   -10237.505            0    -9868.459    10880.902 
   35200    1224.8768   -10231.693            0   -9851.8651    11198.808 
   35300    1213.6358   -10231.922            0   -9855.5794    11096.033 
   35400    1213.1081   -10242.288            0   -9866.1092    11091.209 
   35500    1188.3181   -10238.129            0   -9869.6373    10864.559 
   35600    1215.2252   -10247.812            0   -9870.9771    11110.565 
   35700    1184.2084   -10238.295            0   -9871.0777    10826.985 
   35800     1222.727   -10238.769            0   -9859.6069    11179.153 
   35900    1212.2926   -10228.848            0   -9852.9217    11083.752 
   36000    1234.7383    -10240.99            0    -9858.104    11288.969 
   36100    1188.6045   -10240.898            0    -9872.318    10867.177 
   36200    1186.9604   -10242.338            0   -9874.2673    10852.145 
   36300    1211.8826   -10246.722            0   -9870.9228    11080.004 
   36400    1211.2149   -10236.136            0   -9860.5439      11073.9 
   36500     1246.855   -10237.038            0   -9850.3945     11399.75 
   36600    1226.2761   -10240.356            0   -9860.0943    11211.601 
   36700    1211.8188   -10242.826            0   -9867.0471    11079.421 
   36800    1217.8035   -10251.178            0   -9873.5429    11134.138 
   36900     1162.719   -10241.136            0   -9880.5823    10630.511 
   37000    1161.8925   -10236.422            0   -9876.1247    10622.954 
   37100    1205.3465   -10233.316            0   -9859.5444    11020.246 
   37200    1221.5121   -10238.672            0    -9859.887    11168.045 
   37300    1209.6143   -10244.088            0   -9868.9925    11059.265 
   37400    1184.5578   -10244.559            0    -9877.233    10830.179 
   37500    1187.8601   -10245.887            0   -9877.5371    10860.371 
   37600    1176.8287   -10241.518            0   -9876.5888    10759.513 
   37700    1196.7606    -10242.63            0   -9871.5203    10941.746 
   37800    1177.8492   -10234.934            0   -9869.6883    10768.844 
   37900    1241.4052   -10250.563            0   -9865.6098    11349.924 
   38000    1205.4312    -10242.81            0   -9869.0113     11021.02 
   38100    1186.4943   -10242.917            0   -9874.9909    10847.884 
   38200    1202.7324   -10246.112            0   -9873.1509    10996.346 
   38300    1200.8637   -10242.819            0   -9870.4374     10979.26 
   38400     1205.679   -10245.525            0   -9871.6503    11023.286 
   38500    1204.0705   -10245.831            0   -9872.4547     11008.58 
   38600     1208.692   -10244.909            0   -9870.0997    11050.833 
   38700    1188.6255   -10234.495            0   -9865.9082    10867.369 
   38800    1216.1392   -10233.488            0   -9856.3695    11118.922 
   38900    1223.4401    -10233.42            0   -9854.0372    11185.672 
   39000    1210.1608   -10242.961            0    -9867.696    11064.263 
   39100    1182.9932   -10245.404            0   -9878.5639    10815.874 
   39200    1170.0705   -10238.692            0   -9875.8593    10697.724 
   39300    1210.8628   -10241.252            0   -9865.7694     11070.68 
   39400    1229.5534   -10245.132            0   -9863.8534    11241.565 
   39500    1172.3203   -10231.347            0   -9867.8159    10718.293 
   39600    1194.0338   -10238.476            0   -9868.2116    10916.816 
   39700    1179.3246   -10243.069            0   -9877.3666    10782.333 
   39800    1150.5904    -10237.62            0   -9880.8277    10519.622 
   39900    1184.4864   -10236.687            0   -9869.3831    10829.526 
   40000    1236.3441   -10243.761            0   -9860.3765    11303.651 
   40100    1218.5324    -10241.37            0   -9863.5092    11140.802 
   40200    1182.9021   -10237.879            0   -9871.0668    10815.041 
   40300     1182.427    -10247.68            0   -9881.0149    10810.697 
   40400    1138.4388   -10241.938            0   -9888.9132    10408.522 
   40500    1193.7642   -10244.612            0   -9874.4319    10914.351 
   40600    1190.5306   -10234.927            0   -9865.7491    10884.787 
   40700    1226.9759   -10240.794            0   -9860.3147    11217.999 
   40800    1201.3218   -10239.633            0   -9867.1088    10983.449 
   40900    1189.8968   -10246.627            0   -9877.6458    10878.992 
   41000    1193.5569   -10257.456            0   -9887.3399    10912.456 
   41100    1171.7909   -10243.854            0   -9880.4869    10713.454 
   41200    1232.2445   -10245.278            0   -9863.1654    11266.169 
   41300    1192.0579   -10234.671            0   -9865.0196    10898.751 
   41400    1210.2362   -10244.078            0   -9868.7898    11064.952 
   41500    1193.2565   -10247.911            0   -9877.8882    10909.709 
   41600    1170.8894   -10247.535            0   -9884.4481    10705.211 
   41700    1211.5011    -10247.87            0   -9872.1896    11076.516 
   41800    1196.2624    -10238.01            0   -9867.0547    10937.192 
   41900    1224.1722   -10242.703            0   -9863.0934    11192.365 
   42000     1209.288   -10238.603            0   -9863.6083    11056.282 
   42100    1183.9729    -10243.63            0   -9876.4857    10824.832 
   42200    1181.6631   -10246.455            0   -9880.0272    10803.713 
   42300     1172.272    -10238.84            0   -9875.3241    10717.852 
   42400    1206.4256    -10245.74            0   -9871.6336    11030.112 
   42500    1208.6962   -10246.805            0   -9871.9939    11050.872 
   42600     1162.412   -10234.185            0   -9873.7263    10627.704 
   42700    1203.8039    -10235.48            0   -9862.1868    11006.143 
   42800    1244.3302   -10241.061            0   -9855.1998    11376.667 
   42900    1210.6409   -10240.957            0   -9865.5432    11068.651 
   43000    1185.9145   -10240.788            0   -9873.0418    10842.583 
   43100    1196.4531   -10245.353            0   -9874.3383    10938.935 
   43200      1219.58   -10249.826            0   -9871.6404     11150.38 
   43300    1199.9933   -10243.904            0   -9871.7923    10971.303 
   43400    1225.8803   -10243.928            0   -9863.7883    11207.983 
   43500    1209.7886   -10228.643            0   -9853.4931    11060.859 
   43600    1213.2306    -10232.96            0   -9856.7431    11092.328 
   43700    1209.0596   -10246.126            0   -9871.2025    11054.194 
   43800    1200.1284   -10249.159            0   -9877.0053    10972.538 
   43900     1200.905    -10246.87            0   -9874.4754    10979.639 
   44000    1197.6453   -10244.961            0    -9873.577    10949.836 
   44100    1207.4338   -10238.495            0   -9864.0758     11039.33 
   44200    1222.2306   -10230.634            0   -9851.6261    11174.614 
   44300    1231.6898    -10239.71            0    -9857.769    11261.098 
   44400    1196.1596   -10240.182            0   -9869.2584    10936.252 
   44500    1197.2974   -10242.264            0   -9870.9876    10946.654 
   44600    1213.6622   -10248.227            0   -9871.8759    11096.275 
   44700    1184.7117   -10246.265            0   -9878.8914    10831.586 
   44800    1203.9462   -10261.812            0   -9888.4747    11007.443 
   44900    1162.9465    -10249.46            0    -9888.836    10632.591 
   45000    1195.2096   -10245.055            0   -9874.4261    10927.566 
   45100    1198.1627   -10238.889            0   -9867.3443    10954.565 
   45200    1216.3209   -10239.552            0   -9862.3766    11120.583 
   45300    1203.7537   -10237.626            0   -9864.3479    11005.683 
   45400    1199.0619   -10249.703            0   -9877.8799    10962.787 
   45500    1168.4381   -10246.838            0    -9884.511      10682.8 
   45600    1198.4967   -10245.563            0   -9873.9155    10957.619 
   45700    1219.5606   -10248.755            0   -9870.5751    11150.203 
   45800    1193.8628   -10240.634            0   -9870.4228    10915.253 
   45900    1207.2213   -10245.181            0   -9870.8273    11037.387 
   46000    1161.0918    -10246.74            0   -9886.6914    10615.634 
   46100    1154.7289     -10248.5            0   -9890.4243    10557.459 
   46200    1189.2232    -10247.23            0   -9878.4582    10872.834 
   46300    1232.4566   -10256.181            0   -9874.0019    11268.108 
   46400    1188.4938   -10240.776            0   -9872.2303    10866.165 
   46500    1217.3347   -10238.079            0   -9860.5896    11129.851 
   46600    1209.7504   -10238.093            0   -9862.9551     11060.51 
   46700    1234.7039    -10252.85            0    -9869.974    11288.655 
   46800    1183.5678   -10242.806            0   -9875.7871    10821.128 
   46900    1220.2102    -10251.97            0   -9873.5885    11156.142 
   47000     1192.382   -10240.764            0   -9871.0119    10901.714 
   47100     1203.537   -10242.416            0   -9869.2051    11003.702 
   47200    1240.0799   -10243.588            0   -9859.0452    11337.807 
   47300    1208.5043   -10233.379            0   -9858.6276    11049.117 
   47400    1205.9356   -10245.152            0   -9871.1976    11025.632 
   47500    1189.5676   -10247.102            0   -9878.2225    10875.983 
   47600    1193.8336   -10245.151            0   -9874.9494    10914.986 
   47700    1198.4867   -10240.099            0   -9868.4538    10957.528 
   47800    1214.3243   -10242.746            0   -9866.1901    11102.328 
   47900    1178.8974   -10235.805            0   -9870.2344    10778.427 
   48000     1184.461   -10237.394            0    -9870.098    10829.294 
   48100    1190.6963   -10232.146            0   -9862.9174    10886.302 
   48200    1205.8052   -10233.484            0   -9859.5701     11024.44 
   48300    1215.5184   -10254.081            0   -9877.1548    11113.245 
   48400    1169.9907   -10252.039            0   -9889.2307    10696.995 
   48500    1185.8282   -10251.572            0   -9883.8528    10841.794 
   48600    1229.8763   -10250.102            0    -9868.723    11244.517 
   48700    1212.2043   -10241.074            0   -9865.1756    11082.946 
   48800    1188.3959   -10238.356            0   -9869.8407     10865.27 
   48900    1177.4389   -10241.748            0     -9876.63    10765.092 
   49000    1175.1782   -10250.807            0   -9886.3896    10744.423 
   49100    1203.7804   -10253.025            0    -9879.739    11005.928 
   49200    1229.4383   -10244.639            0   -9863.3959    11240.512 
   49300    1217.3382   -10239.451            0   -9861.9606    11129.883 
   49400    1199.3515   -10237.804            0   -9865.8907    10965.435 
   49500    1183.6547   -10245.818            0   -9878.7729    10821.922 
   49600     1173.509   -10246.171            0   -9882.2715    10729.162 
   49700    1170.5592   -10239.607            0   -9876.6228    10702.192 
   49800    1187.3759   -10237.919            0   -9869.7195    10855.944 
   49900    1239.1498   -10246.501            0   -9862.2467    11329.302 
   50000    1173.0963   -10229.527            0   -9865.7559    10725.389 
Loop time of 9337.72 on 1 procs for 50000 steps with 2400 atoms

Performance: 0.463 ns/day, 51.876 hours/ns, 5.355 timesteps/s
94.1% CPU use with 1 MPI tasks x 1 OpenMP threads

MPI task timing breakdown:
Section |  min time  |  avg time  |  max time  |%varavg| %total
---------------------------------------------------------------
Pair    | 9314.5     | 9314.5     | 9314.5     |   0.0 | 99.75
Neigh   | 16.493     | 16.493     | 16.493     |   0.0 |  0.18
Comm    | 2.6781     | 2.6781     | 2.6781     |   0.0 |  0.03
Output  | 0.016327   | 0.016327   | 0.016327   |   0.0 |  0.00
Modify  | 3.1276     | 3.1276     | 3.1276     |   0.0 |  0.03
Other   |            | 0.9175     |            |       |  0.01

Nlocal:        2400.00 ave        2400 max        2400 min
Histogram: 1 0 0 0 0 0 0 0 0 0
Nghost:        4787.00 ave        4787 max        4787 min
Histogram: 1 0 0 0 0 0 0 0 0 0
Neighs:         0.00000 ave           0 max           0 min
Histogram: 1 0 0 0 0 0 0 0 0 0
FullNghs:      219348.0 ave      219348 max      219348 min
Histogram: 1 0 0 0 0 0 0 0 0 0

Total # of neighbors = 219348
Ave neighs/atom = 91.395000
Neighbor list builds = 1386
Dangerous builds = 0

velocity        all scale ${Tsim}
velocity        all scale 1200
unfix           1

#-----------------------------------------
# 2nd equilibration run
compute         ke all ke/atom
variable        temp atom c_ke/1.5

fix             1 all nve

compute         layers all chunk/atom bin/1d z lower 0.05 units reduced # <--- delta z ?
fix             2 all ave/chunk 10 100 1000 layers v_temp file profile.mp # <--- use every 10 steps, 100 times, repeat every 1000 steps
fix             3 all thermal/conductivity 10 z 20 # <--- perform kintic energy swap every 10 steps, using 20 bins

variable        tdiff equal f_2[11][3]-f_2[1][3]
thermo_style    custom step temp epair etotal f_3 v_tdiff
thermo          1000
#thermo_modify   colname f_3 E_delta colname v_tdiff dTemp_step


run 200000
Per MPI rank memory allocation (min/avg/max) = 4.238 | 4.238 | 4.238 Mbytes
Step Temp E_pair TotEng f_3 v_tdiff 
   50000         1200   -10229.531   -9857.4171            0            0 
   51000    1215.8201   -10234.444   -9857.4245    48.493585   0.04499932 
   52000    1204.4591   -10230.903   -9857.4065     92.46741  0.067590356 
   53000    1207.5254   -10231.856   -9857.4087    135.64107  0.066323463 
   54000    1207.3327   -10231.812   -9857.4236    176.56745  0.067933888 
   55000    1174.4317   -10221.599   -9857.4131    218.68028  0.071631011 
   56000    1193.0988   -10227.393   -9857.4185    258.83784   0.06836769 
   57000    1194.7549   -10227.896   -9857.4089      301.712  0.069152185 
   58000    1188.2731   -10225.895   -9857.4169    342.40805  0.080027888 
   59000    1184.7671   -10224.803   -9857.4123    381.54799  0.072761503 
   60000    1172.1237   -10220.887   -9857.4169    421.56328  0.070670184 
   61000    1205.1994   -10231.145   -9857.4181    460.14949  0.072192973 
   62000    1153.6154   -10215.145   -9857.4141     501.3791  0.069285718 
   63000    1178.1911   -10222.766   -9857.4143    540.83927  0.073089952 
   64000    1138.1812   -10210.346   -9857.4013    582.14651  0.072499471 
   65000    1162.3777    -10217.85    -9857.402    622.20325  0.069116466 
   66000    1159.7901   -10217.046   -9857.4007    664.14672  0.063518495 
   67000    1179.7963   -10223.244   -9857.3951    705.42785  0.065268856 
   68000     1173.373   -10221.273   -9857.4162    747.47961  0.060483617 
   69000    1178.8068   -10222.953   -9857.4109    790.05173  0.069816878 
   70000    1162.9855   -10218.034   -9857.3981    829.01302  0.069502397 
   71000    1168.2383   -10219.664   -9857.3991    868.69335  0.066247784 
   72000     1188.137   -10225.842   -9857.4064     908.1319  0.068739785 
   73000    1163.7555   -10218.285   -9857.4103    947.85094  0.066289135 
   74000    1190.5456   -10226.587   -9857.4046    987.98296  0.066119899 
   75000    1173.3701    -10221.25   -9857.3937    1024.7403  0.072293668 
   76000    1181.0955   -10223.635   -9857.3829    1067.0653  0.066482913 
   77000    1155.0035   -10215.567   -9857.4065     1108.976  0.070156583 
   78000    1166.9954   -10219.272   -9857.3929    1149.0994   0.07245616 
   79000    1160.0436   -10217.109   -9857.3856    1191.0179    0.0690624 
   80000    1176.2426   -10222.141   -9857.3936    1230.8249  0.066163897 
   81000    1154.4558   -10215.381   -9857.3898    1273.8245  0.072418455 
   82000    1179.6586   -10223.195    -9857.389    1313.5399  0.072382227 
   83000    1168.8899   -10219.843   -9857.3757    1351.9521  0.075841789 
   84000    1174.1931   -10221.486   -9857.3748     1392.745  0.069943385 
   85000     1186.269   -10225.234   -9857.3782    1432.6802  0.069614891 
   86000    1150.4438   -10214.134   -9857.3868    1473.0461  0.071366993 
   87000    1168.6483   -10219.763   -9857.3706     1512.084  0.075305355 
   88000    1163.2836   -10218.104    -9857.376    1552.1971  0.070653301 
   89000    1160.9212   -10217.364   -9857.3683    1591.8273  0.069871868 
   90000    1168.6895   -10219.784   -9857.3793    1631.7946  0.068922975 
   91000    1170.2689   -10220.272   -9857.3778    1672.8785  0.067571546 
   92000    1173.7152   -10221.324   -9857.3609     1712.949  0.071578835 
   93000    1164.6997   -10218.541   -9857.3734    1753.3124  0.068053368 
   94000    1146.8092   -10212.988   -9857.3684    1795.0871  0.069832675 
   95000    1204.1946   -10230.772   -9857.3576    1835.1921  0.071224372 
   96000    1166.2475   -10218.989   -9857.3416    1875.7359  0.077932279 
   97000     1174.389   -10221.537   -9857.3648    1915.4381  0.066619629 
   98000     1187.485   -10225.594   -9857.3605    1959.4179  0.065886818 
   99000    1171.5743    -10220.66   -9857.3607    2001.0845  0.062507319 
  100000    1189.3941   -10226.168   -9857.3427    2044.1246  0.065267045 
  101000    1194.8145    -10227.86   -9857.3542    2086.5061  0.068760291 
  102000     1164.965   -10218.602   -9857.3516    2127.6739  0.063959157 
  103000    1169.8712   -10220.129   -9857.3576    2167.2628  0.063723554 
  104000    1150.3987   -10214.075   -9857.3422    2207.9034  0.065318825 
  105000    1188.3695    -10225.86   -9857.3528    2248.5485  0.068413386 
  106000    1170.4064   -10220.289   -9857.3518    2288.3109  0.075023667 
  107000    1205.2088   -10231.085   -9857.3556    2328.6304   0.07763737 
  108000     1196.544    -10228.39   -9857.3472    2369.8674   0.06737951 
[...]
Neighs:         0.00000 ave           0 max           0 min
Histogram: 1 0 0 0 0 0 0 0 0 0
FullNghs:      219934.0 ave      219934 max      219934 min
Histogram: 1 0 0 0 0 0 0 0 0 0

Total # of neighbors = 219934
Ave neighs/atom = 91.639167
Neighbor list builds = 5789
Dangerous builds = 0

#------------------------------------------
# thermal conductivity calculation
fix             3 all thermal/conductivity 10 z 20

variable start_time equal time
variable kappa equal (f_3/(time-${start_time})/(lx*ly)/2.0)*(lz/2.0)/f_ave
variable kappa equal (f_3/(time-250)/(lx*ly)/2.0)*(lz/2.0)/f_ave

fix             ave all ave/time 1 1 1000 v_tdiff ave running
thermo_style    custom step temp epair etotal f_3 v_tdiff f_ave

run 200000
Per MPI rank memory allocation (min/avg/max) = 4.489 | 4.489 | 4.489 Mbytes
Step Temp E_pair TotEng f_3 v_tdiff f_ave 
  250000    1180.2436    -10223.13   -9857.1421            0  0.069906679  0.069906679 
  251000    1196.0368   -10228.024   -9857.1393    38.409742  0.067348221   0.06862745 
  252000    1178.1061   -10222.464    -9857.139    79.180904  0.069732796  0.068995899 
  253000    1164.7144   -10218.308   -9857.1354     117.2731  0.069717703   0.06917635 
  254000    1173.5223    -10221.04   -9857.1365    159.36893  0.062979803  0.067937041 
  255000    1198.4734   -10228.788   -9857.1474    201.46967  0.075306957   0.06916536 
  256000    1187.1006   -10225.251   -9857.1369    243.27237  0.065395496  0.068626808 
  257000    1176.6335   -10221.994   -9857.1259    283.03341  0.067860107   0.06853097 
  258000    1169.5118   -10219.778   -9857.1184    322.53514  0.066446897  0.068299407 
  259000     1166.059   -10218.701    -9857.112    363.16418  0.070983955  0.068567861 
  260000    1168.7056   -10219.545   -9857.1351    405.73893  0.069402697  0.068643756 
  261000    1177.8086   -10222.354   -9857.1218    446.51217  0.073748209  0.069069127 
  262000     1161.062   -10217.157   -9857.1176    487.82497  0.074228764  0.069466022 
  263000     1186.131   -10224.934   -9857.1202     527.1937  0.075768362  0.069916189 
  264000     1183.287   -10224.046   -9857.1144    569.16992  0.072061918  0.070059238 
  265000    1173.9972   -10221.174   -9857.1231     608.9152  0.075468635  0.070397325 
  266000    1180.9401   -10223.315   -9857.1117     649.2016  0.066987119  0.070196725 
  267000    1188.2501   -10225.599   -9857.1281    689.83486  0.065199401  0.069919095 
  268000    1175.1486   -10221.529   -9857.1215    730.89097  0.074738902  0.070172769 
  269000    1178.4697   -10222.557    -9857.119    772.12695  0.066765424  0.070002402 
  270000    1193.3948   -10227.189   -9857.1236    813.74146  0.067168039  0.069867433 
  271000    1189.9177   -10226.101    -9857.113    854.81265   0.06475041  0.069634841 
  272000    1200.4556   -10229.368   -9857.1128    895.12536  0.064406806  0.069407535 
  273000    1183.7043   -10224.174   -9857.1129    936.51589  0.077915946  0.069762052 
  274000    1194.8329   -10227.615   -9857.1034    979.05617  0.063750255   0.06952158 
  275000    1187.0525   -10225.184   -9857.0845    1018.7792  0.067791381  0.069455034 
  276000    1164.8274   -10218.312   -9857.1052    1059.5017  0.069500796  0.069456729 
  277000    1181.6212   -10223.515   -9857.0997     1099.635  0.067284147  0.069379137 
  278000    1176.1398   -10221.814   -9857.0993    1139.4479   0.06619467  0.069269327 
  279000    1164.1044   -10218.079    -9857.096    1178.7829  0.064555268  0.069112192 
  280000    1158.6088    -10216.37   -9857.0912    1217.6124  0.070077262  0.069143323 
  281000    1163.9636    -10218.04   -9857.1007     1257.138  0.070094009  0.069173032 
  282000    1181.6279    -10223.51   -9857.0928    1298.2897  0.062420583  0.068968413 
  283000    1175.6531    -10221.65   -9857.0861     1340.193  0.065841115  0.068876433 
  284000    1204.7094    -10230.66   -9857.0857    1381.5322  0.069392118  0.068891167 
  285000    1171.9748   -10220.514     -9857.09    1421.8711  0.068028191  0.068867196 
  286000    1201.4323   -10229.654   -9857.0961    1463.4698  0.066377353  0.068799903 
  287000    1221.9804   -10236.024   -9857.0943    1502.9321  0.074207497  0.068942208 
  288000    1212.1035   -10232.951   -9857.0838    1541.3053  0.069602554   0.06895914 
  289000    1182.9479   -10223.909   -9857.0828    1581.7103   0.08241151  0.069295449 
  290000    1194.9507   -10227.641   -9857.0923    1621.6346  0.071850235  0.069357761 
  291000    1163.9833   -10218.022    -9857.077    1660.9907  0.071726491  0.069414159 
  292000    1214.4188   -10233.677   -9857.0914    1701.7844  0.068646956  0.069396317 
  293000    1178.7026   -10222.604   -9857.0946    1742.1788  0.066681737  0.069334622 
  294000    1143.0131   -10211.514   -9857.0709    1781.8677  0.074329709  0.069445624 
  295000    1177.4469    -10222.21   -9857.0894     1822.928  0.063348712  0.069313083 
  296000     1192.946   -10227.012    -9857.085    1862.9306  0.072489722  0.069380671 
  297000    1218.7973   -10235.025   -9857.0823    1901.9621  0.075392705  0.069505921 
  298000    1198.6808   -10228.782   -9857.0772    1941.1445  0.076340073  0.069645394 
  299000    1149.9088   -10213.654   -9857.0732    1982.4923  0.074574341  0.069743973 
  300000    1186.5985   -10225.033   -9857.0748    2024.8377  0.071222222  0.069772958 
  301000    1175.0316   -10221.443   -9857.0718    2064.2732  0.067627951  0.069731708 
  302000    1202.2584   -10229.873   -9857.0586    2103.8928   0.07002626  0.069737265 
  303000    1178.6036   -10222.554   -9857.0745    2142.9669  0.073748678  0.069811551 
  304000    1174.7547   -10221.344   -9857.0581    2184.2622   0.07068234  0.069827383 
  305000    1164.9313   -10218.311   -9857.0711    2222.6434  0.066705275  0.069771631 
  306000    1160.3441   -10216.875    -9857.058    2262.8792  0.069683257  0.069770081 
  307000    1158.5598   -10216.315   -9857.0517    2303.0996  0.069010451  0.069756984 
  308000    1177.8964   -10222.322   -9857.0624    2344.3326  0.067612581  0.069720638 
  309000    1187.3321   -10225.244   -9857.0583    2383.9905  0.068486501  0.069700069 
  310000    1159.7746   -10216.701   -9857.0608    2422.7329  0.071200974  0.069724674 
  311000    1193.8417   -10227.269   -9857.0641    2463.6455   0.06522539  0.069652105 
  312000    1185.8253   -10224.774   -9857.0558    2502.9664  0.073919084  0.069719835 
  313000    1203.5907   -10230.281   -9857.0537    2544.8231  0.067608273  0.069686842 
  314000    1182.1073   -10223.624   -9857.0583    2586.3566  0.070836628  0.069704531 
  315000    1163.4667   -10217.835   -9857.0497    2627.0264  0.063655469  0.069612878 
  316000    1202.0521   -10229.801   -9857.0503    2667.2755  0.076234272  0.069711705 
  317000    1197.3118   -10228.336   -9857.0554     2708.178  0.064781347    0.0696392 
  318000     1202.164   -10229.836   -9857.0508    2750.0106  0.070729739  0.069655005 
  319000    1214.2756   -10233.599   -9857.0577    2789.8786  0.080768049  0.069813763 
  320000    1180.0318    -10222.97   -9857.0477    2829.9863   0.07495639  0.069886194 
  321000     1194.239   -10227.374   -9857.0464    2868.8755  0.069374738   0.06987909 
  322000    1182.4686   -10223.729   -9857.0518     2911.858  0.062105789  0.069772607 
  323000     1197.591   -10228.406   -9857.0392    2953.9717   0.06785595  0.069746706 
  324000    1182.7651    -10223.82   -9857.0507    2993.4413  0.073507671  0.069796852 
  325000    1226.4908   -10237.371   -9857.0423    3032.8597  0.073016363  0.069839214 
  326000    1198.1953   -10228.587   -9857.0324     3074.986  0.066213724   0.06979213 
  327000    1182.5182    -10223.73   -9857.0374    3114.8149  0.074893498  0.069857532 
  328000    1148.2165     -10213.1   -9857.0433    3153.5326  0.079517365  0.069979808 
  329000    1170.4004   -10219.991   -9857.0558    3194.6334  0.059648642  0.069850669 
  330000    1151.7841   -10214.196   -9857.0337    3234.4862  0.077280728  0.069942398 
  331000    1197.5351   -10228.396   -9857.0458    3274.8376  0.066809298  0.069904189 
  332000    1182.5695   -10223.756   -9857.0469    3315.3896  0.073991987   0.06995344 
  333000    1184.7269   -10224.407   -9857.0292    3356.9319  0.073633381  0.069997249 
  334000    1194.4442   -10227.439   -9857.0482    3397.4992  0.072100231   0.07002199 
  335000    1171.9112   -10220.452   -9857.0483    3435.3484  0.074868698  0.070078347 
  336000    1189.1168   -10225.784   -9857.0449    3475.6286  0.073424245  0.070116805 
  337000    1159.1409   -10216.502    -9857.058    3516.6366  0.073167159  0.070151469 
  338000    1166.7727   -10218.842   -9857.0313    3556.2834  0.065346734  0.070097483 
  339000    1178.3195   -10222.434   -9857.0425    3596.7423  0.068594042  0.070080778 
  340000     1185.485   -10224.665    -9857.052    3636.8117  0.069822625  0.070077941 
  341000    1185.8386   -10224.765   -9857.0419    3676.8379  0.066315228  0.070037042 
  342000    1199.1649   -10228.898   -9857.0433    3715.9678  0.074160607  0.070081381 
  343000    1174.6241   -10221.283    -9857.038    3754.3956  0.073577337  0.070118572 
  344000    1173.6843   -10220.999   -9857.0453    3792.7329  0.071247314  0.070130454 
  345000    1187.2207   -10225.188   -9857.0372    3832.9462  0.071807444  0.070147923 
  346000     1161.557   -10217.218   -9857.0247    3873.7842  0.065445001  0.070099439 
  347000    1157.4214   -10215.932   -9857.0209    3913.8788  0.061728842  0.070014025 
  348000    1177.5893   -10222.193   -9857.0287    3953.2941  0.065835247  0.069971815 
  349000    1163.1382   -10217.712   -9857.0285    3994.6409  0.070814778  0.069980244 
  350000    1176.5428   -10221.851   -9857.0104    4035.6172  0.072795917  0.070008122 
  351000    1195.7701   -10227.832   -9857.0296    4075.9648  0.071881386  0.070026488 
  352000     1178.235   -10222.394   -9857.0287    4115.7681  0.070557024  0.070031638 
  353000    1186.0178   -10224.789   -9857.0108    4154.1638  0.065403711  0.069987139 
  354000    1170.8306   -10220.095   -9857.0259    4194.1555  0.067513786  0.069963583 
  355000    1180.5782   -10223.125   -9857.0335    4234.7166  0.073830151   0.07000006 
  356000    1183.9179   -10224.159   -9857.0321    4274.2867  0.069122064  0.069991855 
  357000    1163.7109   -10217.878   -9857.0169     4313.907  0.075834506  0.070045954 
  358000    1210.2334   -10232.313    -9857.026    4355.2382  0.071929839  0.070063237 
  359000    1225.8675   -10237.163   -9857.0276    4393.7992  0.071475684  0.070076077 
  360000     1153.718   -10214.779    -9857.017    4434.5436  0.069529089  0.070071149 
  361000    1169.0393   -10219.533   -9857.0199    4477.1757  0.066040671  0.070035163 
  362000    1166.7302   -10218.802   -9857.0045    4518.5474  0.068064968  0.070017728 
  363000    1179.2419   -10222.683   -9857.0055    4559.3413  0.062886565  0.069955174 
  364000    1158.5537   -10216.257    -9856.995    4599.8607  0.065690555   0.06991809 
  365000    1171.2648   -10220.213   -9857.0094    4642.0791  0.067684338  0.069898834 
  366000    1171.6469   -10220.327   -9857.0052    4681.4608   0.06975286  0.069897586 
  367000    1181.2677   -10223.305   -9856.9994    4722.3491  0.076797731  0.069956062 
  368000    1166.9577    -10218.87   -9857.0023    4761.7032  0.073238697  0.069983647 
  369000    1167.1195   -10218.922   -9857.0039    4801.5019  0.069762098  0.069981801 
  370000    1157.7978   -10216.025    -9856.998    4842.5302  0.065767222  0.069946969 
  371000    1190.7988   -10226.273   -9857.0126     4881.455  0.067095781  0.069923599 
  372000    1185.3204   -10224.562   -9856.9995    4921.0742  0.068725393  0.069913858 
  373000    1177.4616   -10222.136   -9857.0107    4960.9428  0.073975292  0.069946611 
  374000    1157.9953   -10216.094   -9857.0051    4997.3444  0.069367085  0.069941975 
  375000    1148.7054   -10213.205   -9856.9972    5037.7145  0.059968521   0.06986282 
  376000    1155.7849   -10215.402   -9856.9991     5080.289  0.062816586  0.069807338 
  377000    1152.0463   -10214.246   -9857.0022     5119.751  0.067866884  0.069792178 
  378000    1151.9994   -10214.213   -9856.9835    5160.6127  0.068095753  0.069779028 
  379000    1166.8589   -10218.823    -9856.986    5202.3113   0.07097815  0.069788252 
  380000    1162.0177   -10217.319   -9856.9834    5242.1719  0.076721955  0.069841181 
  381000    1141.1711   -10210.862   -9856.9908    5281.7694  0.072364605  0.069860298 
  382000    1178.6887   -10222.471   -9856.9651    5321.7669  0.074744172  0.069897019 
  383000    1174.6381   -10221.227   -9856.9771    5362.0026  0.067962544  0.069882582 
  384000    1146.5985   -10212.521   -9856.9669    5402.0015  0.069658265  0.069880921 
  385000     1173.501    -10220.87   -9856.9732    5441.4205  0.071276995  0.069891186 
  386000    1200.5414   -10229.249    -9856.967    5481.4434  0.065919717  0.069862197 
  387000    1218.1777   -10234.729   -9856.9786    5523.4294  0.061341208  0.069800451 
  388000     1189.976   -10225.957   -9856.9513     5564.507  0.069411859  0.069797655 
  389000    1214.1055   -10233.441   -9856.9533    5603.3497  0.069369359  0.069794596 
  390000    1194.2651   -10227.292   -9856.9563    5643.0613   0.06469178  0.069758406 
  391000    1192.4588   -10226.744   -9856.9685    5683.8808  0.066636343  0.069736419 
  392000    1163.8037   -10217.845   -9856.9549    5724.0847   0.06637332  0.069712901 
  393000    1178.3542   -10222.354   -9856.9526    5764.8693  0.066055791  0.069687505 
  394000    1180.4611   -10223.012   -9856.9565    5806.8996  0.064243521   0.06964996 
  395000      1204.34   -10230.421    -9856.961    5848.9424  0.056247107  0.069558159 
  396000    1172.5523   -10220.552   -9856.9491    5888.6397  0.061396311  0.069502637 
  397000    1148.1623   -10213.001   -9856.9615     5930.228   0.07342193  0.069529118 
  398000    1164.7784   -10218.119   -9856.9271    5972.3919  0.072383702  0.069548277 
  399000    1179.4671   -10222.693   -9856.9464    6013.2461  0.070782862  0.069556507 
  400000    1167.4759   -10218.975   -9856.9461     6051.598  0.070839208  0.069565002 
  401000    1163.0208   -10217.592   -9856.9448    6091.7185  0.071472808  0.069577553 
  402000    1158.9236   -10216.305   -9856.9282    6130.9638  0.070513386   0.06958367 
  403000    1191.1862   -10226.323   -9856.9423    6170.6967  0.073616865  0.069609859 
  404000    1203.0113   -10229.998   -9856.9502    6210.4459  0.068873089  0.069605106 
  405000    1164.5575   -10218.077   -9856.9536    6251.9859  0.065129613  0.069576417 
  406000    1190.1023   -10225.979   -9856.9336    6290.0556  0.064111482  0.069541609 
  407000    1182.9652    -10223.78   -9856.9486    6331.0906  0.070509661  0.069547735 
  408000    1184.6686   -10224.307   -9856.9467    6371.1097  0.069139957  0.069545171 
  409000    1204.6703   -10230.507   -9856.9445    6412.9604   0.06674965  0.069527699 
  410000    1160.7392   -10216.869   -9856.9296    6452.3939  0.071514733  0.069540041 
  411000     1159.525   -10216.498    -9856.935     6494.298  0.066075029  0.069518652 
  412000    1178.6666   -10222.438   -9856.9397    6533.3354  0.074525354  0.069549368 
  413000    1172.9945   -10220.663   -9856.9233    6572.0154  0.068022147  0.069540055 
  414000    1205.3304   -10230.697   -9856.9302    6613.2085  0.065805552  0.069517422 
  415000    1204.7821   -10230.542    -9856.945    6655.7506  0.065413722  0.069492701 
  416000    1179.5798    -10222.71    -9856.928    6696.8398  0.063673964  0.069457858 
  417000    1169.1075   -10219.464   -9856.9294    6737.0089  0.076371074  0.069499008 
  418000    1187.9655   -10225.315   -9856.9331    6778.2478  0.063970372  0.069466294 
  419000    1179.1489   -10222.575   -9856.9269    6818.6393  0.067757611  0.069456243 
  420000    1173.8958   -10220.945    -9856.926    6860.2612  0.061205028  0.069407991 
  421000    1171.1121   -10220.091   -9856.9347    6902.5572   0.07035155  0.069413476 
  422000    1148.7996   -10213.165   -9856.9279    6941.0177  0.074023177  0.069440122 
  423000    1153.8214   -10214.711   -9856.9166    6980.7702   0.06290216  0.069402548 
  424000    1168.8375   -10219.372   -9856.9213    7021.4755  0.066997615  0.069388805 
  425000    1213.9611   -10233.374   -9856.9307    7062.2383  0.073619062  0.069412841 
  426000    1209.8485   -10232.087   -9856.9188    7103.6073  0.072331222  0.069429329 
  427000    1187.2273   -10225.064   -9856.9111    7143.4217  0.077566538  0.069475043 
  428000    1173.9873   -10220.957   -9856.9093    7181.9327  0.068177757  0.069467796 
  429000    1154.0894   -10214.798   -9856.9204    7224.3982    0.0665858  0.069451785 
  430000    1171.8634   -10220.296   -9856.9068    7265.1571  0.070821028   0.06945935 
  431000    1186.5252   -10224.837   -9856.9013    7305.8819  0.064464671  0.069431906 
  432000    1167.8798   -10219.071   -9856.9175    7346.5913  0.069203795   0.06943066 
  433000    1178.0934   -10222.244   -9856.9232    7387.0428  0.071597469  0.069442436 
  434000    1178.0867   -10222.242   -9856.9233      7427.13  0.070403934  0.069447633 
  435000     1176.403    -10221.72   -9856.9229     7467.814  0.070689954  0.069454313 
  436000    1149.6733   -10213.414    -9856.906    7509.0237  0.065803688   0.06943479 
  437000    1158.4889   -10216.146   -9856.9048    7549.5881  0.067146839  0.069422621 
  438000    1166.4143   -10218.598   -9856.8983    7590.9873  0.066429724  0.069406785 
  439000    1167.9552   -10219.086   -9856.9088    7629.6123  0.066186884  0.069389838 
  440000    1163.5088   -10217.705   -9856.9067    7669.2763   0.05914545  0.069336203 
  441000    1154.1594   -10214.815   -9856.9163    7709.4821  0.062026271   0.06929813 
  442000    1158.9339   -10216.276   -9856.8967    7749.4104  0.073104288  0.069317851 
  443000    1159.9016   -10216.575   -9856.8954    7789.2846  0.070672376  0.069324833 
  444000    1189.1237   -10225.646   -9856.9051    7828.7038  0.064159921  0.069298347 
  445000    1173.8566   -10220.918   -9856.9108    7870.9489  0.069620172  0.069299988 
  446000    1158.7017   -10216.227   -9856.9188    7911.7962  0.065810784  0.069282277 
  447000    1158.1186   -10216.017   -9856.8897    7951.7854  0.066968879  0.069270593 
  448000    1169.2728   -10219.483   -9856.8976    7990.4567  0.068232316  0.069265375 
  449000    1163.4191   -10217.669   -9856.8984    8031.1361  0.065256447  0.069245331 
  450000    1189.9996   -10225.918    -9856.905    8072.9792  0.071193888  0.069255025 
Loop time of 37177.8 on 1 procs for 200000 steps with 2400 atoms

Performance: 0.465 ns/day, 51.636 hours/ns, 5.380 timesteps/s
93.8% CPU use with 1 MPI tasks x 1 OpenMP threads

MPI task timing breakdown:
Section |  min time  |  avg time  |  max time  |%varavg| %total
---------------------------------------------------------------
Pair    | 37085      | 37085      | 37085      |   0.0 | 99.75
Neigh   | 68.496     | 68.496     | 68.496     |   0.0 |  0.18
Comm    | 10.789     | 10.789     | 10.789     |   0.0 |  0.03
Output  | 0.0052904  | 0.0052904  | 0.0052904  |   0.0 |  0.00
Modify  | 9.5135     | 9.5135     | 9.5135     |   0.0 |  0.03
Other   |            | 3.901      |            |       |  0.01

Nlocal:        2400.00 ave        2400 max        2400 min
Histogram: 1 0 0 0 0 0 0 0 0 0
Nghost:        4676.00 ave        4676 max        4676 min
Histogram: 1 0 0 0 0 0 0 0 0 0
Neighs:         0.00000 ave           0 max           0 min
Histogram: 1 0 0 0 0 0 0 0 0 0
FullNghs:      219954.0 ave      219954 max      219954 min
Histogram: 1 0 0 0 0 0 0 0 0 0

Total # of neighbors = 219954
Ave neighs/atom = 91.647500
Neighbor list builds = 5796
Dangerous builds = 0
print           "Running average thermal conductivity: $(v_kappa:%.2f)"
Running average thermal conductivity: 8.47

write_data	Therm_${Tsim}_restartpoint.lammps
write_data	Therm_1200_restartpoint.lammps
System init for write_data ...

Total wall time: 23:16:59
