LAMMPS data file via write_data, version 29 Sep 2021, timestep = 450000

2400 atoms
3 atom types

0 22.94234388905419 xlo xhi
0 34.413515833581286 ylo yhi
0 45.88468777810838 zlo zhi

Masses

1 18.998403163
2 6.938
3 22.989769

Atoms # atomic

44 1 2.801892442853079 0.9729032754081165 1.023804687332408 0 0 0
179 3 3.202962896541623 1.0063925268956835 3.1162943755863672 1 0 0
89 3 1.6001168154531618 4.644028023667385 1.4094553130469045 0 0 0
32 1 0.09790973229105493 0.5247654587555898 3.179833704198446 0 0 0
19 1 3.126198776034857 3.363114264738235 3.624428427288888 0 0 0
1876 3 0.4385734164994475 0.9408233958498748 0.561146078333016 0 0 1
37 1 22.85916144715607 3.7258779701423514 0.9457883942127088 -1 0 0
96 3 22.3702703336604 2.6742551201249785 3.591352553965623 -1 0 0
7 1 5.655031502743212 0.8147227768996467 3.091651718505798 0 0 0
58 3 5.474620806505091 1.4680381161483838 0.8516886953625498 0 0 0
54 3 5.419530873886135 3.352812010755387 3.4526934395316444 0 0 0
56 3 7.773620623118385 1.3754373603551118 3.292838647238176 0 0 0
5 1 7.476300626559676 1.8658093313549164 0.45990891760969443 0 0 0
79 3 10.49491081326379 1.7371990459362323 0.6169764590289952 0 0 0
132 1 10.375596416528918 1.6776259890542662 3.009543352344556 0 0 0
75 3 7.494600087523528 4.177972792779079 1.1277469411012229 0 0 0
25 1 7.4629223542026075 3.7709652764638024 3.187983755618878 0 0 0
1842 1 12.479735840608694 2.30457833899897 0.5839805098924736 0 0 1
194 3 12.37771138263111 1.7527826607794554 2.9529922085417017 0 0 0
158 3 15.399849717933353 2.3320202822826785 1.0086221159049964 0 0 0
107 1 15.636013830885288 1.9665910038584558 3.0625970339236814 0 0 0
105 1 17.70126821490284 2.490451009373161 0.7359919435615923 0 0 0
577 3 18.220395129914106 2.2300222720277647 3.1421409962657565 0 1 0
2363 3 18.78442208466214 0.4305706102695077 0.6303388308480093 0 1 1
2339 1 15.007971432954388 0.128735582109221 0.13475145297162608 0 1 1
147 1 18.557420458596244 0.0443573863755064 2.7295331749166802 0 0 0
140 1 20.90748270808784 0.892601540763961 0.2585822913912158 0 0 0
156 3 20.807458192862683 2.9968195078463005 1.0459982255010543 0 0 0
125 1 20.29507504596986 2.3710885208163064 3.4953951752828654 0 0 0
182 3 20.788402680723767 0.21294089807785543 2.7565905661492955 0 0 0
46 1 0.8889017273430069 7.1228728187914845 1.6821637269213672 0 0 0
22 1 5.349387589530167 4.1895108864191215 1.4234095707145666 0 0 0
67 3 5.272757808791524 6.107452199768286 2.087274912137049 0 0 0
1845 1 3.338228443549145 8.401393923068776 45.675124283843886 0 0 0
137 1 10.05934368524392 4.258228509842056 0.9110189007369492 0 0 0
9 1 7.528427394347315 6.232272883575137 1.5961551436236874 0 0 0
71 3 9.803672490290408 5.8983638592327825 2.0024878731951614 0 0 0
1887 3 12.359160805184404 4.536434322312742 0.7705563987191154 0 0 1
3 1 12.505168922702172 6.635225753416822 1.6858240061803218 0 0 0
146 1 15.529043527211396 4.775845070823267 1.259270015239606 0 0 0
189 3 14.777815860686268 6.902955371944432 1.7119255997049505 0 0 0
1997 3 17.4652438803408 4.9718761499057855 1.6928387376096576 0 0 1
108 1 17.816869410626825 7.0988986757084085 1.5942693212536485 0 0 0
171 3 21.661450589633972 6.684226775739639 1.3287731660559832 0 0 0
138 1 20.06569460278497 4.976915360673481 1.4504934541813346 0 0 0
165 3 20.38378489962213 4.4550138659825755 3.6941754834461413 0 0 0
8 1 2.5192716182961576 10.4595722205814 2.4523043876000683 0 0 0
90 3 0.30248974927887884 9.856248050658321 2.594422605258484 0 0 0
60 3 2.8762076192382278 10.66617058284693 0.2392605088808677 0 0 0
57 3 2.816143845599724 8.365708745213555 2.2504848048390445 0 0 0
70 3 5.25899439577723 10.632155018868838 2.8066771850696353 0 0 0
38 1 5.105758128058485 8.451115000721508 2.25117857788607 0 0 0
247 1 5.495964236390923 10.912924874437097 0.5768211006175666 0 0 0
85 3 8.054460109898962 8.46707195389247 1.928457154211946 0 0 0
240 1 7.850306830936998 10.508467574803497 2.866454575315075 0 0 0
141 1 10.352809408012945 8.296938697523771 2.5309814255657352 0 0 0
396 3 10.35627865734091 10.33167659978918 2.8061446189468326 0 0 0
317 1 10.552559467315525 10.970547593376406 0.7488358777549244 0 0 0
190 3 10.333860073041679 8.908371637220226 0.3472853598234791 0 0 0
273 3 8.147995075479956 11.21881139698854 0.45067535870915043 0 0 0
1839 1 8.295817380920685 8.9787593002912 45.8505263887571 0 0 0
166 3 13.18143078723399 8.872807160201223 2.239722009069909 0 0 0
1904 1 14.199795911174254 8.425250180546339 0.19332027532159862 0 0 1
102 1 15.581772033226397 9.264608151321667 2.5140985399553357 0 0 0
152 3 16.495589077112268 8.373297030774213 0.022730166596595186 0 0 0
181 3 18.437188280532762 9.431885943922676 2.12202698300209 0 0 0
109 1 18.57083085969097 9.987215483671383 0.17179290126273644 0 0 0
41 1 20.87037688563126 9.811811212877043 2.3280062207128975 -1 0 0
2172 3 20.793969694550203 10.52103592557786 45.59861201244537 0 0 0
244 1 2.869756961520736 13.168406117152687 0.6816664604745747 0 0 0
295 3 2.699163333473016 12.598104876306534 3.145087367368356 0 0 0
558 3 2.1434533879053714 15.384953402840075 1.4254566550158496 1 0 0
51 3 0.4920446714974457 12.269986098509433 0.8185899912140251 0 0 0
220 1 2.2404873689790405 14.597244727424265 3.583671090359306 0 0 0
289 3 22.27339164408819 14.536166989014328 3.3365939973507825 -1 0 0
325 1 0.05703044077794697 12.101584316247449 3.1002698669407156 1 0 0
258 3 5.525345230655203 13.1990181911561 0.6390349949480594 0 0 0
207 1 4.74625330173066 12.79155312792951 2.9151813341718817 0 0 0
205 1 8.088717130087835 13.606248469666502 0.859340714074319 0 0 0
279 3 10.700496101927984 13.729212179271503 0.48508708911301573 0 0 0
225 1 10.620778471032182 14.019308934835209 3.602125615544088 0 0 0
332 1 12.99130110201323 11.206723830211775 2.746659021881805 0 0 0
344 1 13.122029653358544 14.188549870122813 0.9840690898278625 0 0 0
354 3 12.586088668945436 13.351164057577245 2.984079133990316 0 0 0
358 3 15.361845927701069 14.297212045005077 1.3427781238124408 0 0 0
307 1 15.282186061047788 14.014999431874108 3.51244211449977 0 0 0
1921 1 15.651404202421837 11.200931274840082 0.3756193870941856 0 0 1
151 3 13.420981657731076 10.953209899000194 0.39169887595461705 0 0 0
170 3 15.20223178138133 11.650373130957787 2.7486187514906746 0 0 0
340 1 17.795575354822436 11.73354676707172 2.7870608223570517 0 0 0
2076 3 18.220087105020625 12.304269089498378 0.7218946914806761 -1 0 1
305 1 18.044642855756283 14.468602040788511 1.3999893174369522 0 0 0
362 3 17.463720012622765 13.699404650425492 3.568477857554643 0 0 0
214 1 21.18109536389684 12.681631559859397 0.9800624482062777 -1 0 0
356 3 20.772197967284775 12.093263445719229 2.7732834931236265 0 0 0
296 3 20.360381839135517 14.570746989034392 1.1006965906267152 -1 0 0
323 1 20.049404604056054 14.066491717316152 3.09577574383205 0 0 0
235 1 22.930502120420343 14.94480527252211 1.0716658259671952 -1 0 0
303 1 2.3687748256394103 17.495983125715394 1.6068659588134118 1 0 0
222 1 5.638826396804716 15.396642544749794 1.2427401265723823 0 0 0
267 3 5.2286016968501015 17.625146949182124 1.9215639515549492 0 0 0
230 1 7.514442292019825 18.345436618003287 1.713429845154353 0 0 0
271 3 7.70755341273666 15.932807305999203 1.1891260570717475 0 0 0
337 1 10.644309184070886 16.259908791007724 1.474337670371221 0 0 0
388 3 9.66909363320894 18.352691842124045 1.5543337605400933 0 0 0
389 3 12.818286991134498 16.540436508473647 1.6414861387032682 0 0 0
346 1 12.083366174579519 18.873572239428384 1.6524125209372738 0 0 0
322 1 15.305489787011185 16.88965384226107 1.816274053522661 0 0 0
386 3 14.772516830138075 18.89264183673081 1.956433608432889 0 0 0
375 3 17.646687971340747 16.974295188809453 2.127161143645798 0 0 0
367 3 22.785097963742647 17.251897453116317 1.4793791845752968 0 0 0
308 1 20.324796494708533 17.336633017442477 1.5931755733920303 0 0 0
351 3 20.29489411884253 19.432477370075656 1.845870090691919 0 0 0
257 3 1.6049770975863613 19.631400001857713 1.883101172455349 0 0 0
309 1 1.8149941611267635 22.062323688936345 2.671650125420392 1 0 0
208 1 4.806940190169847 20.12346307434004 2.1841194083780775 0 0 0
298 3 6.967257471825634 20.43173784868723 2.4408824192498724 0 0 0
288 3 4.033660892561807 22.433268158438388 2.8121186109441934 0 0 0
415 1 6.861309795090923 22.82777569163018 2.6741159689158103 0 0 0
203 1 9.628638632535967 20.787845758745032 2.0640061390921574 0 0 0
285 3 9.76668414872438 20.981838137540297 45.698736834958524 0 0 -1
370 3 11.929526376251754 21.079831934666537 2.354521628827986 0 0 0
302 1 14.976212056734452 21.383912606050874 2.6859147101541656 0 0 0
209 1 12.079846793002194 21.677123641252415 0.04843411012917187 0 0 0
575 3 15.402178309366652 21.838327209095826 0.636045682510479 0 0 0
517 1 17.766263304269003 19.365411114014705 1.9694526447118395 0 0 0
479 3 17.355708188834168 21.44082423477457 2.6942125359710922 0 0 0
324 1 17.7287024619691 22.250524572634234 0.2960066460195014 0 0 0
338 1 22.335382911923574 19.898300524195395 2.147245023292954 0 0 0
547 1 19.64698984837355 22.014691289391294 2.6514792400799836 0 0 0
1099 3 22.55929967312538 22.182825527301937 2.594370820631333 -1 0 0
2328 1 22.504440477495827 22.49063265045254 0.3430951409976365 0 0 1
385 3 20.217061108822524 22.498805023067842 0.4397392350419592 0 0 0
2163 3 1.8256731699350472 22.71458689433476 0.49725407916392744 1 0 1
444 1 1.9441811340983925 25.382905963090323 0.6058750610769206 0 0 0
559 3 1.792324149939685 25.34579139716265 2.7692169872055596 1 0 0
407 1 4.105039356797667 24.487964001325587 3.081640158222741 0 0 0
458 3 4.116205216816075 25.481765182499746 0.8871370289280044 0 0 0
419 1 4.218690718847328 22.82500794736444 0.4799877295655157 0 0 0
260 3 6.784027064324557 23.03434894624081 0.24312181382750492 0 0 0
422 1 6.480471750130583 25.606712429044965 0.8788554042331822 0 0 0
497 3 6.480234933923636 24.87893505740828 2.991118154090807 0 0 0
390 3 8.863113517932868 23.512329165482726 2.556418322726794 0 0 0
440 1 9.085141843409257 23.703862653532212 0.09017718369581322 0 0 0
473 3 9.172721452708481 26.02281278251542 0.9480905862047888 0 0 0
514 1 9.262400013149266 25.68225926250648 3.250961787815868 0 0 0
475 3 11.413446708695746 26.008837948034635 3.3159925970445525 0 0 0
537 1 11.103419472929017 26.253219834723133 0.7048174229862069 0 0 0
2284 3 11.387755135637924 23.690506973912555 0.6486657121133651 0 0 1
306 1 11.62766248484515 23.245893594525814 2.8345124608450987 0 0 0
544 1 14.694710006499303 24.358735836461058 0.7015431929263065 0 0 0
500 3 14.201735287581965 23.828837624713387 3.1365443335525804 0 0 0
512 1 14.220130479299911 26.22328314850383 3.4129398415206533 0 0 0
507 1 17.10138834301854 24.15698107590501 2.958089291964365 0 0 0
581 3 17.28629622966712 24.354389173530294 0.6226741378680573 0 0 0
540 1 18.943299665950644 26.644753405521538 3.473403289148796 0 0 0
2139 1 19.78812536187028 24.870615229107468 0.5428074756916311 0 0 1
552 3 19.854689644857473 24.34298221873826 2.4839009806344126 0 0 0
2372 3 22.114316840261303 25.15537332081013 0.5649021876902598 0 0 1
525 1 22.12873645249623 24.381715294415297 2.9612406693604107 0 0 0
466 3 1.4063970344543617 27.78546575352273 0.9804303187238782 0 0 0
411 1 3.613013095214702 27.83072837055356 1.3603442670865833 0 0 0
420 1 1.0855655844946566 30.19274489508338 1.38838545708724 0 0 0
2274 3 3.5755324116219827 30.852463357477276 2.1240048523242354 0 0 1
505 1 1.5207565373201308 27.313340891357434 3.9584358782854694 1 0 0
478 3 3.835715135643549 27.92050492338291 3.652193805534982 0 0 0
494 3 6.327749248458265 28.495653934669015 1.240126643107938 0 0 0
402 1 5.856802798757469 30.76049205061243 1.7504122327696818 0 0 0
438 1 8.581951584366609 28.368228315112905 1.5983668406000884 0 0 0
557 3 11.164596684071709 28.271970062210656 1.4836614308320808 0 0 0
589 3 13.647273163064652 26.508127635929572 1.3766733794867774 0 0 0
546 1 14.143081916985182 28.478961022890548 1.4758537649490566 0 0 0
522 1 16.747678733894205 27.09203066148604 0.8979853449899372 0 0 0
565 3 16.301647261791796 29.050750905723348 1.423440728796278 0 0 0
538 1 19.000342117241118 29.589782612416165 1.4705682831015103 0 0 0
571 3 21.320230747982254 27.189373009531852 3.453362775217958 0 0 0
567 3 18.802373074275827 27.514603446089012 1.013366014199569 0 0 0
2301 1 21.696574038927565 27.385906966571177 1.2910279859226284 0 0 1
2353 3 21.295867665262197 30.245538196609054 1.521768319215107 0 0 1
441 1 3.2569542914633147 33.11425142469375 2.583769057090385 0 0 0
154 3 0.9171072647608671 32.46038530128814 2.094638592423635 1 -1 0
2316 1 0.8527115140260916 32.775527995269336 0.004267415982691993 1 0 1
460 3 5.66599947355274 33.218012142363115 2.36657828288552 0 0 0
47 1 5.460736636728955 33.63312092047649 45.75648557448994 0 -1 -1
485 3 7.961083727404018 31.305128742947453 1.6967482961979155 0 0 0
409 1 10.766294060876579 30.716323768963637 1.9414001685983733 0 0 0
73 3 7.851325792123088 34.05160386515598 45.73989817379823 0 -1 -1
40 1 8.261707267546434 33.43320594963973 2.190400124754465 0 -1 0
493 3 10.40053827397297 33.40538972651754 2.4369693836719164 0 0 0
144 1 10.513417987521576 33.86705627913198 0.06643632568592611 0 -1 0
122 1 12.615673793551439 34.126533882472934 2.3392649896927162 0 -1 0
566 3 13.805861844892208 31.12052397064506 1.5288948469452013 0 0 0
551 3 12.751765752726243 34.33995955523057 45.87398651726528 0 0 -1
173 3 15.277290786094717 34.174309000788455 2.583251856725235 0 -1 0
508 1 15.995499718397708 31.951397154452906 1.6398451445398958 0 0 0
585 3 18.517394012848314 31.840225113680976 1.9230129329415238 0 0 0
2206 1 21.004385338505642 32.49627309105394 2.312351067308255 -1 0 1
95 3 3.0420877913786692 2.6592931285109325 5.895863982902921 0 0 0
14 1 0.5474153333283265 2.401806681288188 5.68385657914395 0 0 0
43 1 6.006319781936705 2.493451086864584 5.451782257801079 0 0 0
94 3 5.2469412383901215 0.2196903195077905 4.971507249699309 0 0 0
59 3 7.948223454359062 3.081743611889447 6.324401345824188 0 0 0
196 3 9.896828277937898 3.5227877598208037 3.356404321980518 0 0 0
27 1 8.446105694900725 0.19489374499491668 5.3515154885389 0 0 0
53 3 10.438471728367976 0.40030360120570485 5.531904620860698 0 0 0
416 1 10.356664303098443 2.877772174514818 5.690728957448729 0 1 0
717 1 13.209723016566524 0.8127703273254206 5.484087420590882 0 0 0
675 3 12.5428530433524 3.4859066926992552 5.801661490987934 0 0 0
555 3 15.290695855133096 1.4677076552878732 5.588845786443477 0 1 0
143 1 15.411761358351075 3.7876364373132962 6.23656657822575 0 0 0
127 1 17.896579550155195 1.6074706082112955 5.658361013211075 0 0 0
172 3 20.60726297751199 1.838748583027284 5.7698308625263595 0 0 0
169 3 2.784378622428813 5.4385719720094325 4.199314870977724 1 0 0
12 1 2.676126913941626 4.774203369679217 6.498961622183441 0 0 0
200 3 2.573975985001839 7.4601424518492845 6.403845389108234 1 0 0
20 1 2.913464594686198 7.732733938224018 4.456495704983203 0 0 0
26 1 0.10448417703048918 6.81430495954443 6.785606006174367 0 0 0
88 3 22.873845377011023 6.9019128203228775 4.627350398918108 -1 0 0
35 1 0.007335836192368106 4.950485901516097 3.936226544821334 0 0 0
161 3 22.887835032876644 4.313771552417889 6.495185311692232 0 0 0
23 1 5.235801713573611 5.737156188589802 4.285267617006436 0 0 0
64 3 4.660905950707581 5.562379624577507 6.530511904646644 0 0 0
98 3 7.735320473928637 5.860999724807386 4.122799009284262 0 0 0
31 1 5.29844080598699 7.634997946685069 6.8819064559591485 0 0 0
10 1 7.82966762965698 5.415013367536198 6.810348652676483 0 0 0
135 1 9.847251804611844 5.877551265415457 4.079107538870309 0 0 0
100 3 10.811292898179907 5.223214221754557 6.742709068213196 0 0 0
82 3 7.61387147994491 7.457166051671234 6.8127705145021 0 0 0
119 1 12.769011341498329 3.7323770582525495 3.793640561788059 0 0 0
157 3 12.408977304553726 6.314095538249927 4.12223642898655 0 0 0
112 1 12.906439709323713 6.121740946305033 6.413876606310786 0 0 0
111 1 15.812942696544773 6.539276898757284 3.9032276161865944 0 0 0
752 3 18.002666433096753 3.7339664786726194 5.685205638889118 0 0 0
799 3 15.500689584713955 5.987258651960044 5.770018565169152 0 0 0
167 3 15.475652535974625 4.251380555068255 3.4301837761768823 0 0 0
123 1 17.741692265743183 4.325809747722396 3.7662217275431376 0 0 0
6 1 17.89443649653161 6.148247605758867 6.542779905328644 -1 0 0
373 3 18.216766030500356 6.6807833104431 3.996665810456143 0 0 0
110 1 20.358455048351658 3.800381917574736 5.7242860453589595 0 0 0
164 3 20.27646148951958 6.523046962456903 6.834486492165551 0 0 0
130 1 20.519040624276162 6.892277121933719 4.4427742355133795 0 0 0
379 3 2.78104876386221 9.838529743612565 4.9297688045438015 1 0 0
66 3 5.271998081751571 8.203599467862734 4.431707024469341 0 0 0
24 1 4.9364286242525885 10.33317248656743 5.067459970111044 0 0 0
91 3 7.505235082220443 10.196279519319365 4.91584764237297 0 0 0
30 1 7.62846425320594 8.134589344643526 4.469937704940541 0 0 0
65 3 9.892116934233792 8.524480293363403 4.981576484160814 0 0 0
333 1 10.564799649566938 10.482740120796674 4.769600703280434 0 0 0
120 1 12.89840337203899 8.368779593177473 4.34154416294125 0 0 0
93 3 12.99146565359532 10.623690446822533 4.844725072547546 0 0 0
155 3 12.798443847036514 8.358834552296825 6.8763822527653575 0 0 0
760 3 16.18077439467605 8.734924876611574 4.5305640049624385 0 0 0
315 1 15.306656535585697 11.2891012017401 5.135689145239043 0 0 0
150 1 15.421420888124183 8.453255342290673 7.060715634784438 0 0 0
124 1 18.272351425153197 8.909951266245173 5.037879422320927 0 0 0
1974 3 17.917213325054522 8.668370616854364 7.322085468470604 0 0 1
395 3 18.11194273064958 10.981490021288966 5.104401993972584 0 0 0
233 1 0.13226058089969692 9.512264475668868 4.69419723363779 0 0 0
185 3 20.62958513309767 9.34902801564946 4.951270438356467 0 0 0
134 1 19.977155119540715 8.785464604532924 7.098159633056827 0 0 0
328 1 20.377200076924698 11.604836595230838 5.28543202296759 0 0 0
193 3 22.514323765085084 12.018264198823776 5.33928631249214 0 0 0
215 1 2.454781621157285 12.060209700495303 5.515793040650159 0 0 0
255 3 1.9950441055006736 14.168040047419765 5.7123121833279145 0 0 0
256 3 8.28715885894186 13.42170939976565 3.2878699868576375 0 0 0
359 3 4.95853535654543 15.074074448896921 3.6779757212732105 1 0 0
294 3 4.8046319365158014 12.768020608343559 5.496412054007844 0 0 0
433 1 4.845793609650283 15.068321191722518 5.9785829120125715 0 0 0
227 1 7.306359531357577 12.492146028168923 5.167124108370161 0 0 0
259 3 10.59160790410823 13.166609857334207 5.383948094964693 0 0 0
275 3 10.12321673519349 16.091358333348484 3.7813423699392223 0 0 0
210 1 9.793973623008888 15.361044339699884 5.814247561205938 0 0 0
314 1 12.787814914807294 12.944369038230924 5.158522465550237 0 0 0
265 3 12.731907863337065 14.820494557549566 5.653069539378322 0 0 0
300 3 15.426704399975003 13.075382909714488 6.072975696980621 0 0 0
311 1 17.819601086991973 13.881240875731923 5.878822845379776 0 0 0
331 1 22.162736956358884 14.128457776310437 5.631173774210292 0 0 0
391 3 19.96968424248879 13.760884060814071 5.339943670710589 0 0 0
243 1 1.6129909717388 16.81013556620574 6.346951693495869 0 0 0
392 3 1.8744366158563595 17.20257914952639 3.883009101644016 1 0 0
363 3 4.136911596551155 17.02018968559371 6.777616232513187 1 0 0
246 1 4.4071733217099265 17.387425127423967 3.84047304617737 0 0 0
282 3 7.6498567455644055 18.0343291156787 4.028935705684243 0 0 0
231 1 4.476255442395426 19.028951310028233 6.622406071315822 0 0 0
223 1 7.849353044501343 15.615139048364224 3.4384711264821477 0 0 0
261 3 7.624630358217775 15.312097307543226 5.761422815093339 0 0 0
229 1 7.59401586048137 17.392213857324272 6.394190990653714 0 0 0
238 1 9.92813305250466 18.33268566245775 4.294553849223614 0 0 0
262 3 9.83681737205116 17.700120092296455 6.6642496223065555 0 0 0
319 1 12.800670522889696 16.3659663573693 3.8599575066274916 0 0 0
594 3 15.023351101029505 16.27972622430961 4.024860581866138 0 0 0
335 1 12.455323022032179 18.207404072350954 6.469293691134565 0 0 0
357 3 12.332958814605346 18.578678944317538 4.2572906104209 0 0 0
341 1 14.897225836503537 18.4375278185897 4.24118237625623 0 0 0
383 3 14.373853929271847 18.256676613322288 6.643335107609478 0 0 0
312 1 14.666607362159857 15.916821544080763 6.214255228677071 0 0 0
320 1 17.51115099038135 16.470556754019075 3.9681625406105154 0 0 0
382 3 17.18574510330567 15.934079645189366 6.244388772230158 0 0 0
321 1 17.62326537116752 18.170096116423217 6.712691994815695 0 0 0
292 3 17.284518244826643 18.756809411930256 4.450687145545034 0 0 0
212 1 22.615237741329693 17.257630620790223 3.4317261267129675 -1 0 0
837 1 22.432119961357873 19.216722266898795 6.5362397970506905 -1 0 0
365 3 19.923180399830972 16.427611206206358 3.623072224269401 0 0 0
339 1 19.753254493600274 16.109681658850672 5.629815935992877 0 0 0
981 3 22.48524105925995 16.726212793979187 5.712887315725838 0 0 0
361 3 19.89235723705527 18.699433169532103 6.721433300927909 0 0 0
527 1 19.634997802666103 18.941289131873173 4.488281319042997 0 0 0
584 3 2.145248089844457 19.054354668063066 6.619234113008444 1 0 0
330 1 1.9343914886320246 19.592077338104357 4.407534218438433 1 0 0
476 3 1.5862786119720123 22.00841124711812 5.004881315140642 0 0 0
226 1 1.9242433499766738 21.725486033573382 7.059878132667733 0 0 0
495 3 3.912406552438598 21.321763007238626 7.063099329725939 0 0 0
213 1 3.9204876391967702 21.994377112730373 4.8696143752352 0 0 0
254 3 3.940051884608834 19.748435611337126 4.2051317566235085 0 0 0
241 1 7.008989400703961 19.965626812644018 4.455420698569273 0 0 0
293 3 6.7188250930495474 22.80542113559091 4.93132461839259 0 0 0
224 1 6.867866987320227 21.895067244095923 7.242149842580003 0 0 0
291 3 9.589554323502423 20.4446791801862 4.793400812296091 0 0 0
216 1 9.336615682473964 22.74994947111702 5.162317072611798 0 0 0
533 1 11.79257222367461 20.724527954568376 4.741743282441357 0 0 0
380 3 14.492962655393686 21.14107796745616 4.951274121206557 0 0 0
263 3 11.64436375584045 20.19720459031354 6.771949081529126 0 0 0
902 1 14.587509394649338 20.95049727239235 6.777607757376791 0 0 0
405 1 17.387288689998346 20.79687237803499 5.01132349646655 0 0 0
456 3 17.266491945922134 20.75945908013084 7.244586457187576 0 0 0
2069 3 21.938787989134326 19.633654709043437 4.5531162537968095 0 0 1
562 3 19.796879772281848 21.38674645471578 4.924813451561055 0 0 0
435 1 21.881404328773314 21.52803364431962 4.930976828198304 -1 0 0
542 1 1.3477949759456596 24.13272758119148 5.337140765280298 1 0 0
579 3 3.644178672027565 24.483574119583007 5.272057163185649 1 0 0
277 3 0.7349803250983885 26.718434005770312 5.596783770872987 0 0 0
425 1 6.934875567480338 25.142101556142794 5.164550510416551 0 0 0
1047 1 4.140878033475662 24.43599206574851 7.681403226776883 0 0 0
459 3 9.11491018082488 25.151552686645456 5.671163951856314 0 0 0
596 3 11.659413525204597 22.79365560373586 5.247175579138094 0 0 0
519 1 14.135887751250118 23.912712856164465 5.267534178530914 0 0 0
532 1 11.35365252304348 25.286651582508853 5.60972633473977 0 0 0
554 3 14.278404153757851 26.143843892963705 5.905535703519469 0 0 0
595 3 16.554826988073064 26.477152935970263 2.9460299078657286 0 0 0
377 3 17.58676242521294 23.52236910022403 5.058577832312228 0 0 0
511 1 16.632276907119728 26.0087417593575 5.874676535469377 0 0 0
496 3 19.247113527202526 26.303509506772933 5.652480062098268 -1 0 0
510 1 19.587667842304143 23.63242757887378 5.299900539215263 0 0 0
266 3 21.986911971563625 23.95131087937464 4.966049600217801 -1 0 0
418 1 21.619621278100094 26.32198309947789 5.652962780667644 -1 0 0
412 1 0.8349692189441743 29.220530233870445 6.5480293774166105 0 0 0
451 3 0.7742206308715575 29.66060145262551 3.8825104082792445 0 0 0
437 1 3.699533913244485 30.351804429427094 4.064163694703967 0 0 0
369 3 3.4904781996074132 29.68211792834436 6.23390319556023 1 0 0
443 1 3.7300413432129087 27.24575025262619 5.800740542165829 0 0 0
427 1 6.166296878431112 27.690328715933067 3.5028944471385075 0 0 0
484 3 5.803877782464828 27.046572848904304 5.704826009669805 0 0 0
431 1 5.961923919686985 29.577825033014538 6.16455882245849 0 0 0
498 3 5.950207228590622 30.50563772115872 4.154711293870953 0 0 0
541 1 11.241949313077209 28.373552180962008 3.714474854930003 0 0 0
465 3 8.96277825088959 28.00457742192995 3.8426196741656478 0 0 0
446 1 9.154540712212146 27.638748149227776 6.06547418501362 0 0 0
491 3 8.62515573147397 29.649959477348073 6.351059488594908 0 0 0
434 1 11.234897989840281 30.251672831040345 6.4926901729693824 0 0 0
535 1 8.130103026169985 30.176439654272055 4.232303920078148 0 0 0
454 3 11.23070862225467 27.75668963380759 5.915429173702132 0 0 0
598 3 13.964381422692808 28.23628789205382 3.640417574552333 0 0 0
430 1 13.942767424718799 28.1767189400148 6.437114828526283 0 0 0
482 3 13.181939999752839 30.235412213306414 6.609790351746733 0 0 0
523 1 16.442299925130726 28.95091654024177 3.8958384894202758 0 0 0
564 3 16.44782601405569 28.356533708515183 6.119763717272733 0 0 0
531 1 18.904021651946735 28.735067311154438 6.12496794031872 0 0 0
600 3 18.680717077921983 29.080428438877668 4.064343708959559 0 0 0
432 1 20.9380711434709 29.506376618005316 3.6907415525848495 -1 0 0
488 3 21.28579599684228 29.358698084958696 6.134970797975163 -1 0 0
15 1 2.930728455380663 0.3625109206468945 5.294891338867331 0 0 0
33 1 0.8263385567866431 32.07646677856339 4.443281587745822 0 -1 0
455 3 3.1206992857524107 32.49588758226353 4.726306759763493 0 0 0
421 1 3.5126077149637145 31.691154067702648 7.239986894743695 0 0 0
569 3 0.610022172137108 31.186338403142695 7.156185543892023 1 0 0
159 3 0.4429512940693279 33.98699076978024 5.198264996014035 1 -1 0
424 1 5.701490419650471 32.54312969702138 4.380508946983377 0 0 0
477 3 5.946233436700137 31.625180790485874 6.82231722085124 0 0 0
588 3 11.51118593356486 30.458627530574148 4.055539295542593 0 0 0
470 3 8.668741092826645 32.378953447296766 5.157944834293624 0 0 0
413 1 7.954168352408205 31.92717345095486 7.34330016912471 0 0 0
520 1 10.904240323005686 32.6604265701521 5.1136003008426005 0 0 0
84 3 11.339479563297468 32.48633930985227 7.223653447819096 0 -1 0
423 1 13.579904225106505 30.701771274908747 3.852908106218674 0 0 0
492 3 13.725617346671191 33.112487444451766 5.1862814904540775 0 0 0
114 1 16.011385336917392 30.380879393297622 6.329617746953374 0 -1 0
115 1 15.81937597465096 33.60945411303311 4.54087507554746 0 -1 0
582 3 15.814725443336188 31.071642375020843 4.179520248522284 0 0 0
593 3 18.501834914646338 34.06781492228755 5.084687378442502 0 0 0
580 3 18.799536351820272 30.788964473250754 6.627275089077047 0 0 0
530 1 18.36931246331849 31.333690827232722 4.4490112589151245 0 0 0
17 1 20.80970578502519 34.000026654250966 5.082938267532023 -1 -1 0
490 3 21.198327978877213 32.13701029586961 4.257923200900159 -1 0 0
503 1 21.057870738963082 31.31529781000785 6.312648289837577 0 0 0
516 1 0.5588043356293181 33.74078642494425 7.430251630444187 1 0 0
709 1 2.65501320113625 1.8264788467603115 7.878216501062911 1 0 0
722 1 0.2940071226883335 0.6354501887484446 10.254523912252951 1 0 0
178 3 0.7105664268358739 1.7746364340674803 8.12397339128526 1 0 0
796 3 3.0760383795497415 1.2725975784586374 10.154611632068914 0 0 0
1026 1 2.974814768049687 3.343332592297632 10.504419040985406 -1 1 0
76 3 5.348069280815823 2.1475708946624876 7.76349146331967 0 0 0
18 1 5.629058523106833 34.29360897078861 7.025242855287177 0 -1 0
48 1 5.437203259349791 1.472578566689268 9.919216428284763 0 0 0
78 3 7.9918850267587445 1.8401850787846366 10.481291582253652 0 0 0
11 1 8.30861613803454 2.5871124370268412 8.295800085707675 0 0 0
87 3 10.708266732402752 2.807268986001911 8.346693614073649 0 0 0
36 1 10.660292181759647 0.27938054095017756 7.513401146579002 0 0 0
638 1 10.471337983355564 2.124582843495249 10.281523690341436 0 0 0
637 1 8.044625008325578 4.187723819308748 11.171898713669613 0 0 0
177 3 13.230883242676203 0.7147633071748465 7.806051815436566 0 0 0
133 1 12.809479027634595 3.2100423294070493 7.894860083420997 0 0 0
174 3 13.4345071237189 2.9490422519119774 10.06928891695685 0 0 0
1 1 13.25286027771131 0.5182076849132384 10.221047160820666 0 0 0
719 1 15.366948247119987 0.9687982503089232 8.092192290387365 0 0 0
195 3 14.95388165734513 3.682335873043847 8.246710485784536 0 0 0
163 3 18.099246964729005 1.0254177068525523 7.728561527637883 0 0 0
539 1 18.285398399523924 0.6875305438040911 9.734897254049171 0 1 0
128 1 17.715403507668412 3.461085404576971 8.132515339523607 0 0 0
197 3 15.607273980432828 34.34088394146295 9.82558183290702 0 -1 0
180 3 17.726920878117454 3.127736302867002 10.25380579364814 0 0 0
42 1 15.24706787354812 3.1304840821933806 10.208696360918648 0 0 0
513 1 20.322586958514076 1.3712663714599742 7.7106425246729735 0 1 0
198 3 20.537732227265863 0.4013303802507294 9.928370751289664 0 0 0
690 3 0.1740900773066831 2.9849514745125743 10.435765490251747 0 0 0
705 1 20.730725993318536 2.984813024408014 10.144723944496933 0 0 0
83 3 3.0673399132133703 4.027482339313778 8.450219151530751 0 0 0
50 1 2.821883507671515 6.186482298297933 8.626652649047923 0 0 0
384 3 0.14811592150393552 6.349730732873105 8.886879779117285 1 0 0
4 1 5.482125608878591 4.316135701086347 8.086280209342362 0 0 0
699 3 5.001199390674526 6.948909455011245 9.326344966808287 0 0 0
652 3 5.6351626921073095 3.8727607463157105 10.632108127486969 0 0 0
29 1 10.578795444458745 8.002769408838747 6.832635568375668 0 0 0
603 1 8.052781564347859 7.053051862488829 9.113134437242245 0 0 0
55 3 7.418561066543956 4.896358398606119 8.890173538416397 0 0 0
118 1 10.037499280871709 4.836527412751566 8.699542133716836 0 0 0
61 3 10.304058411078293 7.775209980170447 8.992322453034514 0 0 0
69 3 12.550730902566984 5.90946434981943 8.56094640836947 0 0 0
711 1 12.64945602857871 7.870293181086935 9.00811752385161 0 0 0
721 1 15.211678248110687 5.661432443843906 8.994210383214922 0 0 0
191 3 17.723715312114027 5.963514313704112 8.873458339860768 0 0 0
104 1 0.4051382595164662 3.7744899480137564 8.708718896008715 1 0 0