#FLiNa 100 atoms 2,1,1 ratios

100  atoms
0  bonds
0  angles
0  dihedrals
0  impropers

3  atom types
0  bond types
0  angle types
0  dihedral types
0  improper types

0.0 9.05655085262224 xlo xhi
0.0 9.05655085262224 ylo yhi
0.0 9.05655085262224 zlo zhi

Masses

1 18.998403163    # F
2 6.938           # Li
3 22.989769       # Na

Atoms # 

 1 1 -7.759 1.981 0.883
2 1 17.965 -3.428 12.026
3 1 14.914 6.13 -4.886
4 1 22.654 12.959 9.828
5 1 7.313 4.388 1.315
6 1 11.256 -3.282 1.567
7 1 5.224 -16.665 0.064
8 1 2.985 9.644 8.007
9 1 13.035 -2.719 9.005
10 1 -8.387 3.138 -1.38 
11 1 -9.673 3.171 11.861
12 1 16.758 -2.141 9.428
13 1 -4.101 -9.771 -0.638
14 1 10.485 9.906 -2.381
15 1 29.129 -5.435 2.142
16 1 17.25 9.738 8.949
17 1 5.943 -3.892 8.429
18 1 22.189 0.343 10.747
19 1 13.706 6.971 1.952
20 1 4.448 -6.497 -6.176
21 1 13.324 -0.834 13.176
22 1 1.64 16.861 3.87 
23 1 18.479 -1.215 16.07 
24 1 6.539 2.951 13.307
25 1 2.67 -4.939 -1.143
26 1 1.253 -3.586 14.357
27 1 17.445 1.055 12.838
28 1 13.612 -7.595 -11.505
29 1 5.419 4.784 11.646
30 1 8.051 6.032 7.339
31 1 15.67 -10.169 11.107
32 1 -3.26 -2.214 6.593
33 1 20.535 -0.462 1.487
34 1 16.455 -7.511 6.368
35 1 14.106 3.289 6.706
36 1 19.617 -1.185 17.85 
37 1 9.027 -0.535 -7.071
38 1 9.867 5.036 -0.236
39 1 -3.13 -8.973 13.806
40 1 0.704 11.493 4.905
41 1 -2.1 26.745 16.553
42 1 3.077 7.417 5.765
43 1 7.368 -4.642 -3.202
44 1 12.08 4.756 -5.562
45 1 2.296 10.157 3.494
46 1 22.398 4.589 -3.875
47 1 11.683 -6.159 14.789
48 1 8.503 -1.802 -4.115
49 1 6.609 12.17 -0.184
50 1 -11.022 -7.329 2.097
51 2 13.092 -19.088 2.56 
52 2 21.035 28.932 -2.077
53 2 -10.397 -6.051 -8.261
54 2 2.749 8.211 -4.817
55 2 -10.078 -10.47 10.476
56 2 5.597 -4.604 14.742
57 2 28.292 -4.607 -2.16 
58 2 6.803 -7.804 -14.549
59 2 -7.097 18.538 0.2 
60 2 -1.213 -10.171 -11.658
61 2 -21.094 11.222 -11.866
62 2 10.438 12.338 -0.139
63 2 5.901 -13.34 9.874
64 2 8.713 -11.157 17.336
65 2 -1.954 -4.223 -1.741
66 2 -6.746 -4.727 13.955
67 2 29.626 -0.706 -1.938
68 2 3.466 -1.015 9.336
69 2 11.62 -25.962 1.923
70 2 12.689 14.848 -7.545
71 2 -8.458 -0.201 30.375
72 2 10.734 -10.938 -7.871
73 2 -3.738 2.516 10.181
74 2 -17.058 -4.132 19.803
75 2 -2.545 -5.425 2.718
76 2 13.558 -3.904 3.646
77 2 23.518 -5.519 -0.963
78 2 5.599 -18.141 -2.576
79 2 -31.78 10.051 17.18 
80 2 -1.848 -8.24 -1.091
81 2 8.265 18.945 -7.597
82 2 -3.038 -2.619 11.834
83 2 -4.32 -11.983 7.695
84 2 9.634 -0.063 16.956
85 2 -6.769 -3.845 -9.176
86 2 16.639 6.036 5.395
87 2 -8.257 24.205 13.061
88 2 -5.342 3.546 15.606
89 2 9.864 -6.543 -5.977
90 2 -8.529 -2.322 -2.929
91 2 9.288 2.165 6.71 
92 2 1.948 1.416 -3.946
93 2 17.009 -15.767 -4.672
94 2 12.522 -5.308 11.3 
95 2 4.824 1.038 12.237
96 2 8.229 -22.434 -7.017
97 2 13.214 6.345 5.22 
98 2 5.313 8.952 -17.22 
99 2 5.621 -1.215 13.541
100 2 -2.684 7.274 8.437