LAMMPS (29 Sep 2021 - Update 2)
OMP_NUM_THREADS environment is not set. Defaulting to 1 thread. (src/comm.cpp:98)
  using 1 OpenMP thread(s) per MPI task
# lmp -in therm.lammps
# Muller-Plathe method via fix thermal_conductivity

# conda activate nequip_cuda10.1
# export CUDA_VISIBLE_DEVICES=2
#   lmp -in run_therm_1400
# nohup lmp -in run_therm_1400 > therm_1400_job.out #job =8154
# 1) Initialization
units metal
dimension 3
newton off on
atom_style atomic
boundary p p p



# 2) System definition
read_data	FLi_1300_100_startpoint.lammps
Reading data file ...
  orthogonal box = (0.0000000 0.0000000 0.0000000) to (9.0565509 9.0565509 9.0565509)
  1 by 1 by 1 MPI processor grid
WARNING: Atom style in data file differs from currently defined atom style (src/read_data.cpp:516)
  reading atoms ...
  100 atoms
  read_data CPU = 0.001 seconds
change_box all x final 0 10.717079120916019 y final 0 10.717079120916019 z final 0 10.717079120916019 remap
Changing box ...
  orthogonal box = (0.0000000 0.0000000 0.0000000) to (10.717079 9.0565509 9.0565509)
  orthogonal box = (0.0000000 0.0000000 0.0000000) to (10.717079 10.717079 9.0565509)
  orthogonal box = (0.0000000 0.0000000 0.0000000) to (10.717079 10.717079 10.717079)


# 3) Simulation settings
pair_style	nequip
pair_coeff	* * FLiNa_f_pyt10.2 F Li Na #Li F Na

# 4) NPT:
replicate 2 3 4
Replicating atoms ...
  orthogonal box = (0.0000000 0.0000000 0.0000000) to (21.434158 32.151237 42.868316)
  1 by 1 by 1 MPI processor grid
  2400 atoms
  replicate CPU = 0.001 seconds

# thermo 1
# minimize 1.00e-9 1.0e-9 1000000 10000000
# run 100


timestep .001 # fetmoseconds
variable Tsim equal 1400 # Kelvin
velocity all create ${Tsim} 12335
velocity all create 1400 12335

#-------------------------------------------
# 1st equilibration run
fix 1 all nvt temp ${Tsim} ${Tsim} $(100.0*dt)
fix 1 all nvt temp 1400 ${Tsim} $(100.0*dt)
fix 1 all nvt temp 1400 1400 $(100.0*dt)
fix 1 all nvt temp 1400 1400 0.10000000000000000555
thermo          100
run 50000
Neighbor list info ...
  update every 1 steps, delay 10 steps, check yes
  max neighbors/atom: 2000, page size: 100000
  master list distance cutoff = 7
  ghost atom cutoff = 7
  binsize = 3.5, bins = 7 10 13
  1 neighbor lists, perpetual/occasional/extra = 1 0 0
  (1) pair nequip, perpetual
      attributes: full, newton off
      pair build: full/bin/atomonly
      stencil: full/bin/3d
      bin: standard
Per MPI rank memory allocation (min/avg/max) = 3.991 | 3.991 | 3.991 Mbytes
Step Temp E_pair E_mol TotEng Press 
       0         1400   -11015.196            0   -10581.063    15696.451 
     100    1465.1921   -11044.665            0   -10590.316    16427.368 
     200    1442.8452   -11059.063            0   -10611.644    16176.821 
     300    1422.5038   -11069.755            0   -10628.643    15948.757 
     400    1403.6342   -11081.116            0   -10645.856    15737.197 
     500    1407.9924   -11093.795            0   -10657.183     15786.06 
     600    1353.2048   -11082.072            0    -10662.45    15171.795 
     700     1375.727   -11077.928            0   -10651.322    15424.309 
     800     1404.686   -11073.313            0   -10637.727    15748.989 
     900    1438.4216   -11084.909            0   -10638.862    16127.225 
    1000    1390.2183   -11078.891            0   -10647.791    15586.781 
    1100    1391.7781   -11081.603            0   -10650.019    15604.269 
    1200    1420.9791   -11087.448            0    -10646.81    15931.663 
    1300    1421.1272   -11082.798            0   -10642.113    15933.323 
    1400    1436.7087   -11086.713            0   -10641.197     16108.02 
    1500    1391.2862    -11079.57            0   -10648.139    15598.754 
    1600    1403.5639   -11086.348            0   -10651.109    15736.408 
    1700    1434.9575   -11094.135            0   -10649.161    16088.386 
    1800    1389.9523   -11079.663            0   -10648.646    15583.798 
    1900    1402.0538   -11083.251            0   -10648.481    15719.478 
    2000    1389.3264   -11083.227            0   -10652.403    15576.781 
    2100    1377.5354   -11076.784            0   -10649.617    15444.584 
    2200    1419.4271   -11080.661            0   -10640.504    15914.263 
    2300    1413.1764   -11077.596            0   -10639.377    15844.182 
    2400    1382.6154   -11078.851            0   -10650.108     15501.54 
    2500    1361.3219   -11080.813            0   -10658.674    15262.802 
    2600    1390.1251   -11084.593            0   -10653.522    15585.736 
    2700    1404.5893   -11069.859            0   -10634.303    15747.905 
    2800    1425.4359   -11073.823            0   -10631.803    15981.632 
    2900    1373.3078   -11068.561            0   -10642.705    15397.184 
    3000    1402.0824   -11082.201            0   -10647.422    15719.798 
    3100    1378.6083   -11075.864            0   -10648.365    15456.613 
    3200    1421.5453   -11087.299            0   -10646.485    15938.011 
    3300    1431.2507   -11080.007            0   -10636.183    16046.827 
    3400    1420.7631   -11061.577            0   -10621.005    15929.241 
    3500    1407.1008   -11066.935            0     -10630.6    15776.063 
    3600    1430.9244   -11089.404            0   -10645.682    16043.168 
    3700    1408.9086   -11092.209            0   -10655.313    15796.332 
    3800    1388.0204   -11086.932            0   -10656.513    15562.139 
    3900    1430.9726   -11087.152            0   -10643.415    16043.708 
    4000      1435.67   -11081.339            0   -10636.145    16096.374 
    4100    1396.5085   -11075.334            0   -10642.284    15657.305 
    4200    1389.9608   -11073.867            0   -10642.847    15583.894 
    4300     1407.621   -11075.361            0   -10638.865    15781.895 
    4400    1411.9317   -11081.883            0    -10644.05    15830.226 
    4500    1397.8989   -11086.662            0   -10653.181    15672.893 
    4600    1364.0981   -11081.637            0   -10658.637    15293.928 
    4700    1375.9394   -11086.704            0   -10660.032     15426.69 
    4800    1383.2398   -11079.596            0    -10650.66     15508.54 
    4900    1424.7234   -11078.044            0   -10636.244    15973.644 
    5000    1391.8128   -11067.234            0    -10635.64    15604.658 
    5100    1416.5905   -11081.563            0   -10642.286    15882.459 
    5200    1386.7108   -11089.978            0   -10659.965    15547.455 
    5300    1381.5345   -11087.067            0    -10658.66    15489.421 
    5400    1412.0784   -11087.436            0   -10649.557    15831.872 
    5500    1394.8349   -11076.731            0     -10644.2    15638.542 
    5600    1402.7134   -11075.887            0   -10640.912    15726.873 
    5700    1380.0797   -11066.384            0   -10638.428    15473.109 
    5800    1431.4718   -11076.107            0   -10632.215    16049.305 
    5900    1384.2434   -11071.057            0    -10641.81    15519.792 
    6000    1390.5435   -11083.336            0   -10652.135    15590.427 
    6100    1395.3933   -11088.915            0    -10656.21    15644.801 
    6200    1397.4119   -11080.425            0   -10647.094    15667.434 
    6300    1425.7078   -11073.015            0    -10630.91     15984.68 
    6400    1419.4338   -11076.086            0   -10635.926    15914.338 
    6500    1359.2861   -11067.678            0    -10646.17    15239.977 
    6600    1400.0352   -11081.658            0   -10647.514    15696.846 
    6700    1397.6654   -11081.293            0   -10647.884    15670.276 
    6800    1373.1162   -11076.715            0   -10650.918    15395.037 
    6900    1394.3044   -11077.686            0   -10645.319    15632.593 
    7000     1447.867   -11078.193            0   -10629.217    16233.124 
    7100     1376.816   -11063.556            0   -10636.612    15436.517 
    7200    1392.2935   -11080.108            0   -10648.365    15610.048 
    7300    1374.5596   -11079.912            0   -10653.668    15411.219 
    7400    1401.3933   -11081.354            0   -10646.788    15712.073 
    7500    1434.7491    -11072.31            0   -10627.401    16086.049 
    7600    1393.3379   -11062.969            0   -10630.902    15621.757 
    7700    1387.4259   -11071.677            0   -10641.443    15555.473 
    7800    1392.3516   -11081.702            0   -10649.941    15610.699 
    7900    1406.8949   -11089.835            0   -10653.564    15773.754 
    8000    1390.4032   -11084.971            0   -10653.813    15588.854 
    8100    1401.7758   -11078.232            0   -10643.549    15716.361 
    8200    1422.9146   -11067.798            0   -10626.559    15953.364 
    8300    1432.8804   -11080.045            0   -10635.716    16065.098 
    8400    1379.9195   -11077.396            0    -10649.49    15471.314 
    8500    1364.2423   -11074.988            0   -10651.943    15295.544 
    8600     1419.435   -11082.357            0   -10642.198    15914.351 
    8700    1423.2829   -11078.798            0   -10637.445    15957.493 
    8800    1378.4474   -11070.698            0   -10643.248    15454.808 
    8900    1392.8952   -11095.924            0   -10663.994    15616.793 
    9000     1346.908   -11084.743            0   -10667.074    15101.197 
    9100    1378.0184    -11079.12            0   -10651.803    15449.999 
    9200    1429.1697   -11086.929            0    -10643.75    16023.494 
    9300    1395.9585   -11075.958            0   -10643.078    15651.139 
    9400    1408.0908   -11079.973            0   -10643.331    15787.163 
    9500    1397.2381   -11087.404            0   -10654.128    15665.485 
    9600    1383.8821   -11093.509            0   -10664.374    15515.741 
    9700    1361.8139   -11078.402            0   -10656.111    15268.317 
    9800    1413.0762   -11080.429            0   -10642.241    15843.058 
    9900    1419.5692   -11081.952            0   -10641.751    15915.856 
   10000    1398.7708   -11081.237            0   -10647.485    15682.669 
   10100    1431.2062   -11091.172            0   -10647.362    16046.328 
   10200    1402.7799   -11085.791            0   -10650.796    15727.618 
   10300    1368.8416   -11086.752            0   -10662.281    15347.111 
   10400    1382.7195   -11094.958            0   -10666.183    15502.706 
   10500    1388.4951   -11087.414            0   -10656.849    15567.461 
   10600    1396.9749    -11075.33            0   -10642.135    15662.535 
   10700    1408.6176   -11075.945            0    -10639.14    15793.069 
   10800    1434.0262   -11087.095            0    -10642.41    16077.944 
   10900     1387.753   -11085.484            0   -10655.149    15559.141 
   11000    1359.4634   -11094.289            0   -10672.726    15241.965 
   11100    1381.3589   -11094.988            0   -10666.636    15487.452 
   11200    1385.5403   -11075.718            0   -10646.069    15534.333 
   11300    1408.3185   -11077.075            0   -10640.363    15789.716 
   11400    1419.9667   -11081.252            0   -10640.927    15920.312 
   11500    1370.1898   -11078.149            0    -10653.26    15362.227 
   11600    1383.8412   -11088.089            0   -10658.967    15515.282 
   11700    1366.4746    -11073.72            0   -10649.983    15320.573 
   11800    1429.6636   -11078.426            0   -10635.094    16029.032 
   11900    1419.5773   -11077.531            0   -10637.327    15915.947 
   12000     1404.117   -11080.338            0   -10644.928     15742.61 
   12100    1388.1395   -11083.737            0   -10653.282    15563.474 
   12200    1393.8932   -11087.066            0   -10654.827    15627.983 
   12300    1386.1144   -11082.428            0     -10652.6    15540.769 
   12400    1391.4188   -11081.449            0   -10649.977    15600.241 
   12500    1358.7094   -11068.369            0    -10647.04    15233.511 
   12600    1428.7131   -11083.663            0   -10640.626    16018.375 
   12700    1402.0312   -11071.396            0   -10636.633    15719.224 
   12800    1411.6401   -11068.862            0    -10631.12    15826.957 
   12900    1405.8571   -11069.719            0   -10633.769     15762.12 
   13000    1390.7963   -11077.291            0   -10646.012    15593.261 
   13100    1349.9905   -11073.442            0   -10654.817    15135.757 
   13200    1421.9341   -11089.272            0   -10648.338    15942.371 
   13300    1452.9563   -11085.378            0   -10634.823    16290.184 
   13400     1451.056    -11071.53            0   -10621.565    16268.878 
   13500    1432.1673   -11069.564            0   -10625.456    16057.103 
   13600    1404.3393   -11079.628            0   -10644.149    15745.103 
   13700    1400.3468   -11083.979            0   -10649.738    15700.339 
   13800    1412.1494   -11092.442            0   -10654.542    15832.667 
   13900    1398.7617   -11100.356            0   -10666.607    15682.567 
   14000    1346.1675   -11087.154            0   -10669.714    15092.894 
   14100    1409.2331   -11084.415            0   -10647.419     15799.97 
   14200     1403.857   -11078.697            0   -10643.368    15739.694 
   14300    1374.2687   -11070.973            0   -10644.819    15407.958 
   14400    1407.6404   -11091.824            0   -10655.322    15782.114 
   14500    1378.9174   -11090.579            0   -10662.984    15460.078 
   14600    1381.9357   -11080.021            0    -10651.49    15493.919 
   14700    1419.9522   -11078.459            0   -10638.139     15920.15 
   14800    1413.9342   -11080.645            0    -10642.19    15852.678 
   14900    1390.6284   -11081.627            0     -10650.4    15591.379 
   15000    1414.4499   -11092.932            0   -10654.318     15858.46 
   15100    1368.6614   -11081.126            0   -10656.711    15345.091 
   15200     1377.823   -11068.642            0   -10641.385    15447.807 
   15300    1436.4986   -11076.232            0   -10630.781    16105.664 
   15400    1438.5891   -11082.183            0   -10636.083    16129.102 
   15500    1398.3877   -11083.331            0   -10649.698    15678.374 
   15600    1383.9017   -11081.936            0   -10652.794    15515.961 
   15700    1425.4614   -11091.107            0   -10649.079    15981.917 
   15800    1369.7216   -11072.562            0   -10647.819    15356.977 
   15900    1431.2025   -11077.622            0   -10633.813    16046.285 
   16000    1425.4427   -11064.645            0   -10622.622    15981.708 
   16100    1397.7606   -11063.318            0    -10629.88    15671.344 
   16200    1387.8414   -11074.588            0   -10644.225    15560.132 
   16300    1403.1984   -11088.684            0   -10653.559    15732.311 
   16400    1370.4693    -11079.09            0   -10654.114     15365.36 
   16500    1391.5141   -11078.332            0    -10646.83    15601.309 
   16600    1427.0139   -11080.395            0   -10637.885    15999.324 
   16700    1416.3808   -11072.944            0   -10633.732    15880.108 
   16800    1393.6983   -11072.035            0   -10639.856    15625.798 
   16900    1391.8329   -11084.843            0   -10653.242    15604.884 
   17000    1390.6063   -11086.675            0   -10655.455    15591.131 
   17100    1390.0243   -11079.792            0   -10648.752    15584.606 
   17200    1419.2912   -11073.118            0   -10633.003    15912.739 
   17300    1425.0425   -11078.532            0   -10636.634    15977.221 
   17400    1388.5251   -11076.107            0   -10645.533    15567.797 
   17500    1376.7294   -11073.467            0    -10646.55    15435.546 
   17600    1390.8655   -11076.362            0   -10645.062    15594.038 
   17700    1390.9046   -11074.951            0   -10643.638    15594.476 
   17800    1422.3254   -11069.777            0   -10628.721    15946.758 
   17900      1445.63   -11067.645            0   -10619.362    16208.043 
   18000    1426.8608   -11079.187            0   -10636.724    15997.608 
   18100    1387.5899   -11077.907            0   -10647.622    15557.312 
   18200    1399.9787   -11077.874            0   -10643.748    15696.212 
   18300    1424.6261   -11082.196            0   -10640.427    15972.553 
   18400    1414.7972   -11082.353            0   -10643.631    15862.354 
   18500    1354.5564   -11078.135            0   -10658.093    15186.949 
   18600    1397.1399   -11097.795            0   -10664.549    15664.384 
   18700     1366.308   -11090.439            0   -10666.754    15318.704 
   18800    1392.6611   -11086.739            0   -10654.882    15614.169 
   18900    1410.5326   -11074.221            0   -10636.821     15814.54 
   19000    1461.7605   -11087.382            0   -10634.097    16388.895 
   19100    1377.1605   -11077.608            0   -10650.558     15440.38 
   19200    1380.4149   -11084.815            0   -10656.756    15476.868 
   19300    1409.2283   -11091.312            0   -10654.317    15799.916 
   19400    1374.5454   -11077.517            0   -10651.277     15411.06 
   19500    1403.4175   -11070.695            0   -10635.502    15734.767 
   19600    1435.4461   -11077.158            0   -10632.033    16093.863 
   19700     1378.459   -11073.432            0   -10645.978    15454.939 
   19800    1417.4178   -11086.807            0   -10647.272    15891.735 
   19900    1398.8657   -11082.857            0   -10649.076    15683.734 
   20000    1360.7573   -11073.796            0   -10651.832    15256.471 
   20100    1372.2215    -11073.67            0   -10648.151    15385.005 
   20200    1438.1742   -11075.055            0   -10629.084     16124.45 
   20300    1435.9335   -11066.869            0   -10621.593    16099.328 
   20400    1408.1911   -11074.416            0   -10637.743    15788.287 
   20500    1393.3581   -11076.571            0   -10644.498    15621.984 
   20600    1381.7909   -11076.219            0   -10647.732    15492.295 
   20700    1384.8301   -11079.994            0   -10650.565     15526.37 
   20800    1367.2105   -11083.832            0   -10659.867    15328.824 
   20900    1388.4296   -11092.901            0   -10662.356    15566.726 
   21000    1415.4936   -11086.872            0   -10647.934    15870.161 
   21100    1384.9512   -11066.044            0   -10636.577    15527.728 
   21200    1426.3477   -11077.627            0   -10635.324    15991.854 
   21300    1391.3614   -11075.615            0   -10644.161    15599.597 
   21400    1398.1193    -11084.59            0    -10651.04    15675.365 
   21500    1345.7626   -11085.373            0   -10668.059    15088.355 
   21600    1363.9977   -11096.301            0   -10673.332    15292.802 
   21700    1397.9765   -11091.444            0   -10657.939    15673.764 
   21800    1405.3216   -11085.281            0   -10649.498    15756.116 
   21900    1400.7737   -11082.688            0   -10648.314    15705.125 
   22000    1382.9773   -11075.921            0   -10647.066    15505.596 
   22100    1416.6482   -11078.723            0   -10639.427    15883.107 
   22200    1403.3896   -11068.892            0   -10633.707    15734.455 
   22300    1426.3719   -11086.176            0   -10643.865    15992.126 
   22400    1401.8212   -11090.361            0   -10655.663     15716.87 
   22500    1404.7715   -11091.427            0   -10655.814    15749.948 
   22600    1422.4407   -11087.421            0   -10646.329     15948.05 
   22700    1432.7076   -11071.288            0   -10627.012     16063.16 
   22800    1434.8445   -11067.174            0   -10622.236    16087.119 
   22900    1419.5852   -11074.516            0   -10634.309    15916.036 
   23000    1392.5624   -11076.634            0   -10644.807    15613.063 
   23100    1414.9987   -11087.492            0   -10648.708    15864.613 
   23200    1375.1245   -11079.005            0   -10652.586    15417.554 
   23300    1397.0373    -11078.05            0   -10644.835    15663.234 
   23400    1401.8767   -11066.664            0   -10631.949    15717.492 
   23500    1437.1088   -11076.707            0   -10631.067    16112.505 
   23600    1415.4659   -11085.799            0    -10646.87     15869.85 
   23700    1366.1661   -11081.995            0   -10658.354    15317.113 
   23800    1370.9776   -11077.754            0    -10652.62    15371.059 
   23900     1430.495   -11085.476            0   -10641.886    16038.353 
   24000    1424.5817   -11082.802            0   -10641.046    15972.055 
   24100    1398.4051   -11082.234            0   -10648.596    15678.569 
   24200    1407.8441   -11103.886            0    -10667.32    15784.397 
   24300    1343.9688   -11081.261            0   -10664.503    15068.243 
   24400    1385.1827   -11078.507            0   -10648.968    15530.323 
   24500    1406.1778   -11077.493            0   -10641.444    15765.715 
   24600    1411.2987    -11078.97            0   -10641.333    15823.129 
   24700    1366.8219   -11074.066            0   -10650.222    15324.466 
   24800    1363.9595   -11086.845            0   -10663.888    15292.374 
   24900    1368.0365   -11082.725            0   -10658.503    15338.084 
   25000    1411.9646    -11076.75            0   -10638.907    15830.595 
   25100    1391.4297   -11069.952            0   -10638.477    15600.363 
   25200    1417.6478   -11083.206            0     -10643.6    15894.314 
   25300    1385.2285   -11083.889            0   -10654.336    15530.837 
   25400     1361.282   -11083.792            0   -10661.665    15262.354 
   25500    1413.6841   -11085.075            0   -10646.699    15849.873 
   25600    1443.3148   -11083.107            0   -10635.543    16182.086 
   25700    1433.4679   -11085.203            0   -10640.692    16071.685 
   25800    1366.0682   -11076.637            0   -10653.026    15316.017 
   25900    1389.1779   -11089.527            0    -10658.75    15575.116 
   26000    1374.8251   -11085.467            0    -10659.14    15414.196 
   26100    1403.1422   -11085.855            0   -10650.748    15731.681 
   26200    1431.4088   -11084.758            0   -10640.885    16048.599 
   26300    1401.4303   -11079.581            0   -10645.004    15712.488 
   26400     1387.559   -11087.042            0   -10656.767    15556.965 
   26500    1390.9279   -11093.426            0   -10662.106    15594.737 
   26600    1380.1271   -11087.026            0   -10659.056    15473.641 
   26700    1396.6039   -11073.896            0   -10640.816    15658.375 
   26800    1439.4536   -11082.428            0    -10636.06    16138.795 
   26900    1369.8824   -11072.406            0   -10647.612     15358.78 
   27000    1362.3258   -11076.095            0   -10653.644    15274.058 
   27100    1375.6065   -11081.371            0   -10654.802    15422.957 
   27200    1408.7883   -11087.673            0   -10650.815    15794.983 
   27300     1404.771   -11084.963            0    -10649.35    15749.943 
   27400    1408.7883   -11089.493            0   -10652.635    15794.983 
   27500    1404.8701   -11094.522            0   -10658.879    15751.053 
   27600    1366.2986   -11089.361            0   -10665.679    15318.599 
   27700     1381.763   -11082.864            0   -10654.386    15491.982 
   27800     1438.854   -11086.919            0   -10640.737    16132.073 
   27900    1402.2913    -11076.82            0   -10641.977     15722.14 
   28000    1384.8584   -11077.106            0   -10647.669    15526.687 
   28100    1376.6078   -11085.609            0    -10658.73    15434.183 
   28200    1347.0477   -11085.628            0   -10667.915    15102.763 
   28300    1391.7587   -11088.884            0   -10657.306    15604.052 
   28400    1410.4024   -11081.994            0   -10644.635    15813.081 
   28500    1408.0183   -11080.155            0   -10643.536    15786.351 
   28600    1392.7621   -11078.707            0   -10646.818    15615.301 
   28700    1391.9502   -11084.907            0    -10653.27    15606.199 
   28800    1360.3208   -11083.537            0   -10661.708    15251.578 
   28900    1368.3409   -11085.327            0   -10661.011    15341.497 
   29000    1392.4862   -11077.452            0   -10645.649    15612.208 
   29100    1417.7302   -11077.998            0   -10638.367    15895.238 
   29200    1398.8608   -11080.068            0   -10646.289    15683.678 
   29300    1384.0998   -11088.173            0    -10658.97    15518.182 
   29400    1398.9288   -11093.727            0   -10659.926    15684.441 
   29500    1330.0382   -11069.869            0   -10657.431    14912.057 
   29600    1374.6734   -11072.595            0   -10646.315    15412.495 
   29700    1408.9582   -11076.357            0   -10639.446    15796.888 
   29800    1419.5264   -11079.823            0   -10639.635    15915.376 
   29900    1402.6265   -11081.793            0   -10646.845    15725.898 
   30000    1393.7703   -11089.242            0   -10657.041    15626.605 
   30100    1330.3511   -11091.465            0   -10678.929    14915.565 
   30200    1357.4816   -11094.969            0    -10674.02    15219.745 
   30300    1383.7164   -11090.792            0   -10661.708    15513.884 
   30400    1374.9433   -11078.113            0    -10651.75    15415.521 
   30500    1427.4275   -11084.327            0   -10641.689    16003.961 
   30600    1397.2455   -11074.773            0   -10641.494    15665.568 
   30700    1409.7202   -11077.851            0   -10640.703    15805.431 
   30800    1409.0786   -11084.647            0   -10647.699    15798.238 
   30900    1379.8201   -11089.168            0   -10661.293    15470.199 
   31000    1380.4456   -11086.183            0   -10658.113    15477.212 
   31100    1410.3176    -11080.73            0   -10643.398     15812.13 
   31200    1427.2244   -11079.791            0   -10637.216    16001.684 
   31300    1379.7555   -11071.114            0   -10643.259    15469.475 
   31400    1406.7997   -11082.915            0   -10646.673    15772.688 
   31500    1391.1726   -11074.854            0   -10643.458     15597.48 
   31600     1448.095   -11071.673            0   -10622.626     16235.68 
   31700    1429.9128   -11066.719            0    -10623.31    16031.826 
   31800    1407.4237   -11074.623            0   -10638.188    15779.684 
   31900    1383.8507   -11074.969            0   -10645.843    15515.389 
   32000     1412.559   -11083.999            0   -10645.971    15837.259 
   32100    1359.8344   -11071.638            0    -10649.96    15246.124 
   32200    1423.8292    -11093.38            0   -10651.857    15963.618 
   32300    1408.1075    -11087.75            0   -10651.103     15787.35 
   32400    1381.2543   -11077.708            0   -10649.388    15486.279 
   32500    1397.9022   -11078.555            0   -10645.072    15672.931 
   32600     1428.883   -11084.644            0   -10641.554     16020.28 
   32700    1427.8709   -11094.011            0   -10651.235    16008.932 
   32800    1342.1159    -11079.16            0   -10662.977    15047.469 
   32900    1388.3226   -11086.077            0   -10655.565    15565.527 
   33000    1416.2139   -11087.095            0   -10647.934    15878.238 
   33100    1392.4832   -11079.367            0   -10647.565    15612.175 
   33200    1388.7323   -11079.844            0   -10649.205    15570.121 
   33300    1382.4061   -11078.366            0   -10649.689    15499.193 
   33400    1394.9481   -11078.565            0   -10645.999     15639.81 
   33500    1383.3696   -11072.208            0   -10643.232    15509.995 
   33600    1368.3322   -11071.298            0   -10646.985    15341.399 
   33700    1370.6908   -11079.176            0   -10654.131    15367.843 
   33800    1355.5595   -11075.733            0   -10655.381    15198.196 
   33900    1394.1374   -11070.532            0   -10638.217    15630.721 
   34000    1404.2253   -11071.224            0    -10635.78    15743.824 
   34100    1384.8413   -11075.954            0   -10646.522    15526.496 
   34200    1423.0911    -11093.11            0   -10651.817    15955.342 
   34300    1400.2581   -11086.178            0   -10651.965    15699.345 
   34400    1400.8337   -11081.057            0   -10646.665    15705.799 
   34500    1396.8702   -11074.271            0   -10641.108     15661.36 
   34600     1447.644   -11073.795            0   -10624.888    16230.623 
   34700    1438.7194   -11068.786            0   -10622.646    16130.564 
   34800    1378.3287    -11066.05            0   -10638.637    15453.478 
   34900    1375.8765   -11073.096            0   -10646.443    15425.984 
   35000    1380.7407   -11077.888            0   -10649.727    15480.521 
   35100    1391.7759   -11077.403            0    -10645.82    15604.245 
   35200    1441.0988   -11073.646            0   -10626.769     16157.24 
   35300    1442.2921   -11076.193            0   -10628.946    16170.619 
   35400    1406.5358   -11077.773            0   -10641.614    15769.729 
   35500    1389.2551   -11076.824            0   -10646.023    15575.982 
   35600    1428.3581   -11096.502            0   -10653.575    16014.395 
   35700     1377.304   -11089.151            0   -10662.056    15441.989 
   35800    1406.4072   -11089.109            0   -10652.989    15768.287 
   35900    1427.0293   -11078.177            0   -10635.662    15999.497 
   36000    1412.5987   -11072.899            0    -10634.86    15837.704 
   36100    1408.7646   -11080.708            0   -10643.857    15794.718 
   36200    1374.1177   -11082.041            0   -10655.934    15406.265 
   36300     1376.507   -11083.108            0    -10656.26    15433.053 
   36400    1414.3374   -11084.146            0   -10645.567    15857.198 
   36500    1414.4474   -11068.384            0   -10629.771    15858.432 
   36600    1473.6366   -11076.796            0   -10619.828    16522.046 
   36700    1424.4475   -11077.567            0   -10635.853     15970.55 
   36800    1411.4111   -11080.584            0   -10642.912     15824.39 
   36900    1386.9367   -11081.345            0   -10651.262    15549.989 
   37000    1383.9404   -11088.298            0   -10659.145    15516.395 
   37100    1374.8681   -11084.149            0    -10657.81    15414.679 
   37200    1424.7492   -11079.267            0   -10637.459    15973.932 
   37300    1378.7697   -11062.175            0   -10634.625    15458.423 
   37400    1390.3279   -11071.784            0    -10640.65    15588.009 
   37500    1417.1494   -11090.087            0   -10650.636    15888.726 
   37600    1368.2183   -11089.829            0   -10665.551    15340.123 
   37700    1378.1016   -11092.256            0   -10664.913    15450.932 
   37800    1391.3529   -11081.425            0   -10649.973    15599.502 
   37900    1431.1705   -11080.537            0   -10636.738    16045.927 
   38000    1440.4674   -11091.177            0   -10644.495    16150.161 
   38100    1367.4108   -11080.729            0   -10656.702    15331.069 
   38200    1381.6389    -11084.34            0     -10655.9    15490.591 
   38300    1421.1849   -11083.019            0   -10642.316    15933.971 
   38400    1435.1197   -11080.254            0    -10635.23    16090.204 
   38500    1402.9206    -11075.37            0   -10640.331    15729.196 
   38600    1387.7359   -11091.633            0   -10661.303    15558.949 
   38700    1391.5283   -11095.836            0    -10664.33    15601.469 
   38800    1419.1764    -11095.99            0   -10655.911    15911.452 
   38900    1431.5968   -11090.061            0   -10646.129    16050.707 
   39000    1402.5174   -11078.157            0   -10643.243    15724.675 
   39100    1403.5227   -11082.605            0    -10647.38    15735.947 
   39200    1383.2459   -11088.546            0   -10659.608    15508.608 
   39300    1380.7017   -11085.288            0   -10657.139    15480.084 
   39400    1406.7265   -11079.491            0   -10643.272    15771.867 
   39500    1411.7559   -11070.304            0   -10632.525    15828.255 
   39600    1411.5839   -11073.385            0    -10635.66    15826.327 
   39700    1422.1558   -11084.296            0   -10643.292    15944.856 
   39800    1380.8224   -11077.108            0   -10648.922    15481.436 
   39900    1397.3993   -11084.547            0    -10651.22    15667.292 
   40000     1386.584   -11088.931            0   -10658.958    15546.034 
   40100    1370.7186   -11088.286            0   -10663.233    15368.155 
   40200    1367.7553   -11072.323            0   -10648.189    15334.932 
   40300    1402.3375   -11072.463            0   -10637.605    15722.658 
   40400    1378.2571   -11069.548            0   -10642.157    15452.675 
   40500    1387.2038   -11081.227            0   -10651.061    15552.983 
   40600    1348.8012   -11082.285            0   -10664.029    15122.423 
   40700    1348.9909   -11091.259            0   -10672.943     15124.55 
   40800    1386.6863   -11087.896            0   -10657.892    15547.181 
   40900    1418.5044   -11081.884            0   -10642.013    15903.918 
   41000    1432.9311   -11079.534            0   -10635.189    16065.666 
   41100     1397.346   -11071.342            0   -10638.032    15666.695 
   41200    1386.1171   -11075.879            0   -10646.051      15540.8 
   41300    1367.1576   -11086.481            0   -10662.533     15328.23 
   41400    1408.0137   -11102.521            0   -10665.903    15786.299 
   41500    1388.3098   -11086.746            0   -10656.238    15565.384 
   41600    1386.6722   -11079.585            0   -10649.585    15547.023 
   41700     1393.285   -11074.935            0   -10642.884    15621.164 
   41800    1436.2199   -11082.727            0   -10637.362    16102.539 
   41900    1394.7787   -11075.854            0   -10643.339    15637.911 
   42000    1357.0179   -11083.388            0   -10662.583    15214.547 
   42100    1380.0984   -11087.311            0   -10659.349    15473.319 
   42200    1404.3967   -11083.418            0   -10647.921    15745.745 
   42300    1382.8739   -11069.976            0   -10641.153    15504.437 
   42400    1408.3034   -11075.926            0   -10639.218    15789.547 
   42500     1382.748   -11071.562            0   -10642.778    15503.026 
   42600    1421.6328   -11085.652            0   -10644.811    15938.993 
   42700    1364.8775   -11087.729            0   -10664.487    15302.667 
   42800    1358.7963   -11085.646            0   -10664.289    15234.485 
   42900    1394.2675   -11081.334            0   -10648.978     15632.18 
   43000    1425.5961    -11083.92            0    -10641.85    15983.428 
   43100    1442.1934   -11088.822            0   -10641.605    16169.513 
   43200    1387.0581   -11084.598            0   -10654.478     15551.35 
   43300    1372.4721   -11091.553            0   -10665.956    15387.815 
   43400    1406.1371   -11098.803            0   -10662.767    15765.259 
   43500    1403.2025   -11089.979            0   -10654.852    15732.357 
   43600    1392.4667   -11079.757            0    -10647.96    15611.989 
   43700    1445.9691   -11091.255            0   -10642.867    16211.845 
   43800    1405.5321   -11084.141            0   -10648.292    15758.476 
   43900    1413.3386   -11087.753            0   -10649.484        15846 
   44000    1348.2256   -11084.827            0   -10666.749    15115.969 
   44100    1369.6204   -11096.037            0   -10671.325    15355.843 
   44200     1373.677   -11080.645            0   -10654.674    15401.324 
   44300    1390.5363   -11076.318            0    -10645.12    15590.346 
   44400    1406.7607   -11076.793            0   -10640.563     15772.25 
   44500    1388.6535   -11072.829            0   -10642.214    15569.237 
   44600    1387.2886   -11083.193            0   -10653.002    15553.934 
   44700     1377.094   -11088.974            0   -10661.944    15439.634 
   44800    1369.7679   -11078.367            0   -10653.609    15357.496 
   44900    1412.8719   -11074.661            0   -10636.536    15840.768 
   45000    1400.5936   -11073.636            0   -10639.319    15703.107 
   45100    1407.0495   -11083.119            0     -10646.8    15775.488 
   45200    1399.1112   -11089.959            0   -10656.101    15686.486 
   45300    1369.6852   -11092.067            0   -10667.335    15356.569 
   45400    1355.8195   -11094.944            0   -10674.511    15201.111 
   45500    1380.3082   -11085.741            0   -10657.714    15475.672 
   45600    1425.6704   -11089.325            0   -10647.232    15984.261 
   45700    1428.9493   -11087.127            0   -10644.017    16021.023 
   45800    1372.6123   -11078.377            0   -10652.737    15389.387 
   45900    1381.0251   -11089.946            0   -10661.697    15483.709 
   46000    1362.5329   -11073.361            0   -10650.847    15276.379 
   46100    1411.5908   -11072.047            0    -10634.32    15826.404 
   46200    1428.1651    -11081.61            0   -10638.743    16012.232 
   46300    1411.3011    -11087.63            0   -10649.992    15823.157 
   46400    1407.7761    -11092.97            0   -10656.425    15783.635 
   46500    1386.9237   -11087.431            0   -10657.352    15549.843 
   46600    1381.5764   -11082.906            0   -10654.486    15489.891 
   46700    1408.0938   -11082.412            0   -10645.769    15787.196 
   46800    1444.0169    -11086.27            0   -10638.487    16189.958 
   46900    1397.8415    -11075.53            0   -10642.066     15672.25 
   47000    1367.4983    -11083.38            0   -10659.325     15332.05 
   47100    1396.3696   -11095.532            0   -10662.525    15655.748 
   47200     1390.412   -11089.943            0   -10658.783    15588.953 
   47300    1416.2292   -11085.912            0   -10646.746    15878.409 
   47400    1426.7012    -11079.97            0   -10637.557    15995.819 
   47500    1395.2605   -11071.185            0   -10638.521    15643.313 
   47600    1414.3895   -11076.185            0   -10637.589    15857.783 
   47700    1400.6323     -11074.6            0    -10640.27     15703.54 
   47800    1405.8239   -11085.749            0    -10649.81    15761.747 
   47900    1377.0447   -11090.045            0    -10663.03    15439.082 
   48000    1367.5747   -11085.676            0   -10661.598    15332.907 
   48100    1428.3339   -11084.476            0   -10641.556    16014.124 
   48200    1423.2426   -11084.017            0   -10642.676    15957.042 
   48300    1382.6541   -11076.662            0   -10647.908    15501.973 
   48400    1367.4457   -11076.338            0     -10652.3     15331.46 
   48500    1395.4369   -11084.804            0   -10652.086     15645.29 
   48600    1386.2902   -11073.015            0   -10643.133     15542.74 
   48700    1406.6271   -11070.131            0   -10633.943    15770.753 
   48800    1391.0586   -11069.655            0   -10638.295    15596.202 
   48900    1384.6838    -11085.14            0   -10655.756     15524.73 
   49000     1395.282   -11094.996            0   -10662.326    15643.554 
   49100    1362.8087   -11080.607            0   -10658.007    15279.471 
   49200    1392.7053   -11080.376            0   -10648.505    15614.665 
   49300    1421.6338   -11086.907            0   -10646.066    15939.004 
   49400    1404.7309   -11083.513            0   -10647.913    15749.493 
   49500    1419.1001   -11089.663            0   -10649.607    15910.596 
   49600    1379.9315   -11081.472            0   -10653.562    15471.448 
   49700    1381.5825   -11081.314            0   -10652.893    15489.958 
   49800    1419.7584   -11074.801            0   -10634.541    15917.978 
   49900    1418.1434   -11066.748            0   -10626.989     15899.87 
   50000    1411.1582   -11074.024            0   -10636.431    15821.554 
Loop time of 10508.7 on 1 procs for 50000 steps with 2400 atoms

Performance: 0.411 ns/day, 58.381 hours/ns, 4.758 timesteps/s
98.4% CPU use with 1 MPI tasks x 1 OpenMP threads

MPI task timing breakdown:
Section |  min time  |  avg time  |  max time  |%varavg| %total
---------------------------------------------------------------
Pair    | 10466      | 10466      | 10466      |   0.0 | 99.59
Neigh   | 35.554     | 35.554     | 35.554     |   0.0 |  0.34
Comm    | 3.0516     | 3.0516     | 3.0516     |   0.0 |  0.03
Output  | 0.016361   | 0.016361   | 0.016361   |   0.0 |  0.00
Modify  | 3.1539     | 3.1539     | 3.1539     |   0.0 |  0.03
Other   |            | 0.8932     |            |       |  0.01

Nlocal:        2400.00 ave        2400 max        2400 min
Histogram: 1 0 0 0 0 0 0 0 0 0
Nghost:        5160.00 ave        5160 max        5160 min
Histogram: 1 0 0 0 0 0 0 0 0 0
Neighs:         0.00000 ave           0 max           0 min
Histogram: 1 0 0 0 0 0 0 0 0 0
FullNghs:      278236.0 ave      278236 max      278236 min
Histogram: 1 0 0 0 0 0 0 0 0 0

Total # of neighbors = 278236
Ave neighs/atom = 115.93167
Neighbor list builds = 2450
Dangerous builds = 0

velocity        all scale ${Tsim}
velocity        all scale 1400
unfix           1

#-----------------------------------------
# 2nd equilibration run
compute         ke all ke/atom
variable        temp atom c_ke/1.5

fix             1 all nve

compute         layers all chunk/atom bin/1d z lower 0.05 units reduced # <--- delta z ?
fix             2 all ave/chunk 10 100 1000 layers v_temp file profile.mp # <--- use every 10 steps, 100 times, repeat every 1000 steps
fix             3 all thermal/conductivity 10 z 20 # <--- perform kintic energy swap every 10 steps, using 20 bins

variable        tdiff equal f_2[11][3]-f_2[1][3]
thermo_style    custom step temp epair etotal f_3 v_tdiff
thermo          1000
#thermo_modify   colname f_3 E_delta colname v_tdiff dTemp_step


run 200000
Per MPI rank memory allocation (min/avg/max) = 4.242 | 4.242 | 4.242 Mbytes
Step Temp E_pair TotEng f_3 v_tdiff 
   50000         1400   -11074.023    -10639.89            0            0 
   51000    1414.5795    -11078.55   -10639.896    58.955795  0.030924853 
   52000    1410.0981   -11077.146   -10639.881    110.00282  0.063941975 
   53000    1415.3673   -11078.775   -10639.877    158.91312  0.064897699 
   54000    1410.0908   -11077.152    -10639.89    205.82051  0.065925892 
   55000    1426.3775   -11082.189   -10639.877    255.21571  0.067403465 
   56000    1409.1904   -11076.845   -10639.862    305.71151  0.068191037 
   57000    1405.1965   -11075.629   -10639.884    355.91661  0.072105302 
   58000    1396.1878   -11072.828   -10639.877    403.86341  0.068223129 
   59000    1390.2335   -11070.972   -10639.867    455.13386  0.066625362 
   60000    1430.7046   -11083.558   -10639.903    504.47771   0.07109654 
   61000    1406.4166   -11075.996   -10639.873    552.83385  0.066254558 
   62000    1432.9063   -11084.238   -10639.901     599.6768  0.072230838 
   63000    1419.4479   -11080.066   -10639.903    649.23041      0.07054 
   64000    1418.6297   -11079.812   -10639.902    696.91748  0.065852084 
   65000    1383.0345   -11068.758   -10639.886    747.16665  0.068694249 
   66000    1429.1181   -11083.072    -10639.91    794.36705  0.073302782 
   67000      1437.79   -11085.772   -10639.921    844.61005   0.06767318 
   68000    1423.0606   -11081.212   -10639.928    892.83509  0.072999733 
   69000    1435.9496   -11085.227   -10639.946    939.70766  0.073066463 
   70000    1388.3889    -11070.46   -10639.927    988.11747  0.068644124 
   71000    1393.3262   -11071.999   -10639.935    1037.1563  0.073639862 
   72000     1410.683   -11077.391   -10639.945    1088.8006  0.065336949 
   73000    1451.2493   -11089.968   -10639.942    1137.7652  0.066678457 
   74000    1427.9273   -11082.725   -10639.931    1188.9116   0.06678062 
   75000    1422.7964   -11081.137   -10639.935    1239.0571  0.062574122 
   76000     1432.192   -11084.046    -10639.93      1287.82   0.07255431 
   77000    1404.3308   -11075.395   -10639.918    1336.2623  0.072240195 
   78000    1406.7133   -11076.147   -10639.933    1384.0801  0.074601262 
   79000    1400.2057    -11074.12   -10639.923    1435.2163  0.069639708 
   80000    1420.6775   -11080.477   -10639.931    1483.4583  0.071498751 
   81000    1429.8175   -11083.278   -10639.899    1533.8712   0.06703061 
   82000    1413.9186   -11078.386   -10639.937     1583.738  0.068717419 
   83000    1426.8605   -11082.409   -10639.947    1632.6946  0.074572391 
   84000    1434.0983   -11084.642   -10639.935    1681.4549  0.073576832 
   85000    1408.3366   -11076.656   -10639.938    1732.2902  0.072765407 
   86000    1439.0542   -11086.217   -10639.973    1782.9042  0.063895719 
   87000     1396.204   -11072.915   -10639.959    1834.2133  0.064484513 
   88000    1420.5953   -11080.468   -10639.948    1883.7665  0.070088764 
   89000    1435.3023   -11085.069   -10639.989    1931.0936  0.071611564 
   90000    1381.5473    -11068.37   -10639.959    1982.0925  0.066258602 
   91000    1417.9109   -11079.655   -10639.968     2031.832  0.064750459 
   92000     1423.371    -11081.35   -10639.969    2079.7167  0.068215411 
   93000    1382.8892   -11068.792   -10639.965    2129.7975  0.066372918 
   94000    1416.0923   -11079.095   -10639.971     2180.136  0.063660542 
   95000    1412.2944   -11077.915   -10639.969    2229.2787  0.069526794 
   96000    1392.3789   -11071.744   -10639.974    2278.4596  0.069834819 
   97000    1409.0185   -11076.914   -10639.984    2327.7817  0.070785096 
   98000    1429.6686   -11083.318   -10639.985    2378.0875  0.066058621 
   99000    1411.2059   -11077.579   -10639.971    2426.3625  0.075114374 
  100000    1404.9677   -11075.645   -10639.971    2473.8032  0.060480603 
  101000    1437.3259   -11085.698   -10639.991     2525.729  0.060721914 
  102000    1414.9184   -11078.722   -10639.962    2575.5453  0.063004309 
  103000    1419.7121   -11080.222   -10639.976    2621.4426   0.07200506 
  104000    1429.9331   -11083.395   -10639.979    2669.3733   0.06949182 
  105000    1420.3837   -11080.432   -10639.978    2718.5947  0.070462511 
  106000    1419.0338   -11080.012   -10639.976    2769.4601  0.071818265 
  107000    1400.8683   -11074.395   -10639.992    2817.1971  0.075598586 
  108000     1421.173   -11080.683   -10639.984    2866.7627  0.074235318 
  109000    1411.4994   -11077.694   -10639.995      2914.86  0.074019642 
  110000    1429.1958   -11083.195   -10640.009    2961.4319  0.072114418 
  111000    1385.1148   -11069.513   -10639.995    3013.7523  0.068219772 
  112000    1445.2279   -11088.196   -10640.038    3064.2833  0.076746545 
  113000    1419.7312   -11080.255   -10640.003    3113.5597  0.078960948 
  114000    1425.2297   -11081.984   -10640.028    3162.7524  0.073602225 
  115000     1403.493   -11075.241   -10640.025    3210.5538  0.072453637 
  116000    1427.8027   -11082.805    -10640.05    3259.4878  0.072844649 
  117000    1449.0055   -11089.409    -10640.08    3309.0367   0.06737305 
  118000    1429.5746   -11083.404     -10640.1    3359.3171  0.066826379 
  119000    1427.1783   -11082.652   -10640.091    3406.0161  0.069761143 
  120000    1418.2694   -11079.867   -10640.069    3454.6714   0.07276569 
  121000    1423.1343     -11081.4   -10640.093    3501.5146  0.076090894 
  122000    1409.1495   -11077.034   -10640.064    3548.4622  0.067954236 
  123000    1453.6888   -11090.887   -10640.105    3597.9799  0.063288358 
  124000    1374.3413   -11066.227    -10640.05    3643.6206  0.065173603 
  125000    1396.9154   -11073.243   -10640.067    3692.5507  0.058056277 
  126000    1431.0274   -11083.847   -10640.092    3740.7823  0.062367055 
  127000    1441.9618   -11087.231   -10640.086    3786.9688  0.069263125 
  128000    1401.4724   -11074.651   -10640.062    3834.1784  0.066298077 
  129000     1415.229   -11078.951   -10640.096    3884.8497  0.065791961 
  130000    1390.9993   -11071.452    -10640.11    3933.6933  0.065325421 
  131000    1414.1286   -11078.614     -10640.1    3984.7488  0.061577944 
  132000    1423.9579   -11081.667   -10640.105    4034.1895  0.071173634 
  133000    1387.3943    -11070.33   -10640.106    4082.3623  0.067371322 
  134000    1396.9684   -11073.269   -10640.076    4133.1798  0.064168694 
  135000     1410.043   -11077.336   -10640.089    4181.1036  0.071664532 
  136000    1393.6175   -11072.259   -10640.105    4231.1081   0.06123684 
  137000     1378.471   -11067.542   -10640.085    4280.1962  0.067158807 
  138000    1416.8151   -11079.446   -10640.099    4329.0057  0.065624614 
  139000    1404.3105   -11075.554   -10640.084    4378.8811  0.068317857 
  140000    1413.1127   -11078.302   -10640.102    4426.5982  0.073964281 
  141000     1396.882   -11073.264   -10640.097    4474.2303  0.068776886 
  142000    1423.0731    -11081.36   -10640.072    4520.7293  0.077915939 
  143000    1427.2631   -11082.687   -10640.099    4569.6171  0.067919205 
  144000    1447.8807   -11089.095   -10640.114    4619.3023  0.071123451 
  145000    1408.0033   -11076.734   -10640.119     4668.704  0.072645121 
  146000    1386.5985   -11070.064   -10640.087    4717.8988  0.070218778 
  147000    1427.0884   -11082.621   -10640.088    4765.9035  0.069425873 
  148000    1406.2388   -11076.197    -10640.13    4814.7302   0.06894337 
  149000    1409.1561   -11077.095   -10640.122    4865.0209  0.072357039 
  150000    1418.0631   -11079.867   -10640.133    4912.0391  0.070503626 
  151000    1395.9701   -11073.039   -10640.156    4962.7037  0.064690184 
  152000    1405.6489   -11076.041   -10640.156    5010.7882  0.072285612 
  153000    1413.9494   -11078.608    -10640.15    5061.6222  0.069987741 
  154000     1401.128   -11074.605   -10640.123    5108.9633   0.07130023 
  155000    1431.8841   -11084.192   -10640.172    5158.5865  0.070657358 
  156000    1403.4949   -11075.355   -10640.139    5207.6709  0.068745603 
  157000    1436.5014   -11085.582    -10640.13    5257.5609  0.076884591 
  158000    1415.2725   -11079.017   -10640.148    5305.6432  0.075976293 
  159000    1415.7106   -11079.176   -10640.171    5352.9783  0.070822546 
  160000    1418.0752   -11079.858    -10640.12    5400.9021  0.067419711 
  161000    1431.1103   -11083.942   -10640.162      5450.09  0.066392682 
  162000    1408.1209   -11076.807   -10640.155    5498.2627  0.065533517 
  163000    1408.2618    -11076.84   -10640.145    5548.6945  0.066739548 
  164000    1421.1878   -11080.814   -10640.111    5596.2446  0.068021486 
  165000    1421.3634   -11080.895   -10640.137    5643.7542  0.066801006 
  166000    1403.5139    -11075.35   -10640.127    5694.0011  0.066063983 
  167000    1405.0149   -11075.795   -10640.107    5743.2757  0.060028925 
  168000    1433.8678   -11084.784   -10640.149    5793.9556  0.068373157 
  169000    1432.8369   -11084.433   -10640.117    5843.0721  0.063705106 
  170000    1410.1988   -11077.423   -10640.127    5892.9983  0.064897784 
  171000    1412.6489   -11078.192   -10640.137    5941.4603   0.06790167 
  172000    1415.8701   -11079.206   -10640.152    5990.9918  0.071940685 
  173000    1415.5464   -11079.081   -10640.127    6040.4405  0.069666968 
  174000    1406.1683   -11076.207   -10640.161    6090.1622  0.070337191 
  175000    1407.5987   -11076.632   -10640.142    6139.7718  0.069028471 
  176000    1381.5162   -11068.548   -10640.146    6186.0335  0.074022247 
  177000    1410.1044   -11077.406    -10640.14    6233.3252  0.067630884 
  178000    1424.9369   -11082.021   -10640.155    6280.3571  0.064022081 
  179000    1407.4766   -11076.605   -10640.154    6329.4919  0.061957317 
  180000    1394.8913   -11072.724   -10640.175    6379.3266  0.068754284 
  181000    1414.2226   -11078.699   -10640.156    6428.3762  0.074482129 
  182000    1385.4191   -11069.748   -10640.136    6478.4422  0.069591435 
  183000    1395.8378   -11072.987   -10640.145    6530.8643  0.067592852 
  184000    1437.5168   -11085.924   -10640.157    6579.3317  0.069824352 
  185000    1437.9737   -11086.085   -10640.176    6628.1207   0.06927061 
  186000    1405.7031   -11076.067   -10640.166    6676.8887  0.066660967 
  187000    1411.7919   -11077.953   -10640.163    6725.3397  0.071244346 
  188000    1403.0834   -11075.248   -10640.159    6774.3296  0.070256258 
  189000    1419.2333   -11080.272   -10640.175    6823.4451  0.070053222 
  190000    1379.4193   -11067.898   -10640.147    6870.7235  0.068953518 
  191000    1396.1029   -11073.082   -10640.157      6918.53  0.064321495 
  192000    1415.5286   -11079.124   -10640.176    6964.3997  0.066383038 
  193000    1439.9756   -11086.714   -10640.185    7014.0481  0.066104675 
  194000    1411.4775   -11077.864   -10640.172    7060.5812  0.070058858 
  195000     1384.898   -11069.592   -10640.142    7107.9321  0.074060559 
  196000    1396.2148   -11073.149    -10640.19    7155.8954  0.078045556 
  197000    1417.3064   -11079.673   -10640.173    7206.0731  0.074468861 
  198000    1424.1219   -11081.839   -10640.226    7254.5305  0.064921129 
  199000    1407.3335     -11076.6   -10640.192    7302.2599  0.070330527 
  200000    1426.9116   -11082.704   -10640.226    7352.3277  0.067279476 
  201000    1411.5804   -11077.897   -10640.173    7404.4683  0.060667824 
  202000    1413.9407   -11078.671   -10640.215     7454.679   0.06738782 
  203000     1413.032   -11078.386   -10640.211    7504.5087  0.069778139 
  204000     1421.745   -11081.095   -10640.219    7552.4741  0.069277795 
  205000     1405.665   -11076.101   -10640.211    7600.4494  0.073923883 
  206000    1429.2446   -11083.419   -10640.217    7647.8478  0.066716555 
  207000    1399.3722   -11074.134   -10640.195    7697.4827   0.07220739 
  208000    1397.9912   -11073.702   -10640.192    7747.3313  0.072577924 
  209000     1400.143   -11074.398   -10640.221    7795.2935  0.067186691 
  210000     1391.149   -11071.602   -10640.213    7842.1137  0.065932982 
  211000    1371.7656   -11065.575   -10640.197    7890.8224  0.064371596 
  212000    1440.0327   -11086.786   -10640.239     7939.904  0.075793477 
  213000    1407.1975   -11076.578   -10640.213    7987.1933  0.075690143 
  214000    1385.6321   -11069.895   -10640.217    8036.8802  0.066886881 
  215000    1429.5452   -11083.555    -10640.26    8087.2212  0.075788645 
  216000    1410.5793   -11077.663   -10640.249    8134.6552  0.073666971 
  217000    1414.4674   -11078.869    -10640.25     8182.635  0.068593167 
  218000    1422.8658   -11081.468   -10640.244    8232.4526  0.065154591 
  219000    1446.2147   -11088.698   -10640.234    8279.7484  0.075102509 
  220000    1406.4982   -11076.388    -10640.24    8328.4152  0.073811303 
  221000    1413.7179   -11078.661   -10640.274    8375.2789  0.078862253 
  222000      1420.69   -11080.832   -10640.283    8424.5744   0.07282939 
  223000     1410.092   -11077.522    -10640.26      8471.74  0.068557785 
  224000    1415.4845   -11079.197   -10640.262    8519.4905  0.068379435 
  225000    1390.4546   -11071.433   -10640.259    8568.0352  0.069156596 
  226000    1408.1561   -11076.927   -10640.264    8618.1409  0.072922838 
  227000    1393.1241   -11072.267   -10640.266    8669.7568  0.064187834 
  228000    1397.3032   -11073.567   -10640.271    8717.0966  0.073747155 
  229000     1402.118   -11075.068   -10640.278    8764.4026  0.079693656 
  230000    1396.4101   -11073.298   -10640.278    8811.8838  0.067578931 
  231000     1400.085   -11074.426   -10640.266     8860.342  0.070125743 
  232000    1426.8398   -11082.766    -10640.31    8909.7085  0.069729447 
  233000    1407.1424   -11076.629   -10640.281    8959.6259   0.07288982 
  234000    1417.0967   -11079.735   -10640.301    9007.4557  0.068944643 
  235000    1420.0575   -11080.658   -10640.305    9054.3735  0.073741691 
  236000    1388.1137   -11070.744   -10640.297    9103.1828  0.071099204 
  237000    1428.6784   -11083.318   -10640.292    9152.9455  0.070946721 
  238000    1428.6365   -11083.303    -10640.29    9200.8233   0.06783205 
  239000    1426.4007   -11082.614   -10640.294     9249.337  0.071046273 
  240000    1426.3848   -11082.622   -10640.307    9298.9981  0.070849377 
  241000    1448.3874   -11089.468    -10640.33    9348.0471  0.067568024 
  242000    1401.6101   -11074.927   -10640.294    9395.0852    0.0666515 
  243000    1436.4244   -11085.758    -10640.33    9443.5816  0.066297285 
  244000    1391.2961   -11071.742   -10640.308    9490.7456  0.065234172 
  245000    1416.9026   -11079.701   -10640.327    9536.7596  0.068472534 
  246000    1408.3406   -11077.046   -10640.326    9585.2485  0.074136284 
  247000     1431.219   -11084.161   -10640.347    9633.3061  0.070889319 
  248000    1436.2191   -11085.722   -10640.357    9680.4347  0.067982188 
  249000    1396.0794   -11073.261   -10640.343    9728.2985  0.075247863 
  250000     1448.367   -11089.485   -10640.354    9777.3222  0.073261382 
Loop time of 42151.4 on 1 procs for 200000 steps with 2400 atoms

Performance: 0.410 ns/day, 58.544 hours/ns, 4.745 timesteps/s
98.4% CPU use with 1 MPI tasks x 1 OpenMP threads

MPI task timing breakdown:
Section |  min time  |  avg time  |  max time  |%varavg| %total
---------------------------------------------------------------
Pair    | 41974      | 41974      | 41974      |   0.0 | 99.58
Neigh   | 150.55     | 150.55     | 150.55     |   0.0 |  0.36
Comm    | 13.257     | 13.257     | 13.257     |   0.0 |  0.03
Output  | 0.0064419  | 0.0064419  | 0.0064419  |   0.0 |  0.00
Modify  | 10.087     | 10.087     | 10.087     |   0.0 |  0.02
Other   |            | 3.912      |            |       |  0.01

Nlocal:        2400.00 ave        2400 max        2400 min
Histogram: 1 0 0 0 0 0 0 0 0 0
Nghost:        5219.00 ave        5219 max        5219 min
Histogram: 1 0 0 0 0 0 0 0 0 0
Neighs:         0.00000 ave           0 max           0 min
Histogram: 1 0 0 0 0 0 0 0 0 0
FullNghs:      278502.0 ave      278502 max      278502 min
Histogram: 1 0 0 0 0 0 0 0 0 0

Total # of neighbors = 278502
Ave neighs/atom = 116.04250
Neighbor list builds = 10244
Dangerous builds = 0

#------------------------------------------
# thermal conductivity calculation
fix             3 all thermal/conductivity 10 z 20

variable start_time equal time
variable kappa equal (f_3/(time-${start_time})/(lx*ly)/2.0)*(lz/2.0)/f_ave
variable kappa equal (f_3/(time-250)/(lx*ly)/2.0)*(lz/2.0)/f_ave

fix             ave all ave/time 1 1 1000 v_tdiff ave running
thermo_style    custom step temp epair etotal f_3 v_tdiff f_ave

run 200000
Per MPI rank memory allocation (min/avg/max) = 4.498 | 4.498 | 4.498 Mbytes
Step Temp E_pair TotEng f_3 v_tdiff f_ave 
  250000     1448.367   -11089.487   -10640.356            0  0.073261382  0.073261382 
  251000    1413.7587   -11078.735   -10640.336    50.178048  0.075506215  0.074383798 
  252000    1449.2862   -11089.778   -10640.362     100.1026  0.070719168  0.073162255 
  253000    1423.0293   -11081.624    -10640.35    148.33583  0.073341638  0.073207101 
  254000    1417.4681   -11079.928   -10640.378    199.23557  0.065855815  0.071736843 
  255000    1402.0089   -11075.126    -10640.37    246.24553   0.06561907  0.070717215 
  256000     1410.956   -11077.889   -10640.358    296.62993  0.066243528  0.070078116 
  257000     1406.469   -11076.481   -10640.342    345.68344  0.068261428   0.06985103 
  258000    1397.3766   -11073.653   -10640.334    391.59511  0.074844529  0.070405864 
  259000    1400.8269   -11074.707   -10640.317    438.88684   0.07576274  0.070941551 
  260000    1413.5192   -11078.666   -10640.341    486.89197  0.069541538  0.070814277 
  261000    1407.5487   -11076.814   -10640.341    534.55699  0.069209565  0.070680551 
  262000    1426.6163   -11082.707    -10640.32    584.43166  0.068300553  0.070497474 
  263000    1415.8523    -11079.39   -10640.341    634.36992  0.073306506   0.07069812 
  264000    1436.5802   -11085.857   -10640.381    683.34693  0.075045295  0.070987931 
  265000    1419.8002   -11080.673     -10640.4    730.92998  0.066261776  0.070692547 
  266000    1394.4741   -11072.787   -10640.368    777.48328  0.072929014  0.070824104 
  267000    1410.4365   -11077.741   -10640.372    825.13219  0.073373317  0.070965726 
  268000    1406.8338   -11076.635   -10640.383    877.15389  0.059064748  0.070339359 
  269000    1462.7323   -11094.007   -10640.421    925.57667   0.07399445  0.070522114 
  270000    1439.7238   -11086.857   -10640.406    971.46059  0.068502602  0.070425947 
  271000    1409.8785   -11077.602   -10640.405    1018.9072  0.067541643  0.070294842 
  272000    1408.8743   -11077.285     -10640.4    1068.6929  0.064157908  0.070028019 
  273000    1419.8991   -11080.733    -10640.43    1117.3892  0.065198852  0.069826803 
  274000    1395.0197   -11073.006   -10640.417    1167.4817  0.065128145  0.069638857 
  275000    1404.0223   -11075.822   -10640.442    1216.6199   0.06759238  0.069560146 
  276000    1437.2175    -11086.12   -10640.446    1262.6568  0.072492536  0.069668753 
  277000    1430.8727   -11084.152   -10640.446    1310.3033  0.072027685  0.069753001 
  278000    1414.5716   -11079.101   -10640.449    1358.9487  0.070670049  0.069784623 
  279000    1429.4642   -11083.703   -10640.433    1408.3966  0.071356892  0.069837032 
  280000    1412.4781   -11078.432   -10640.429    1456.6638  0.073582529  0.069957855 
  281000    1445.2174    -11088.59   -10640.435    1506.0778  0.071062743  0.069992382 
  282000    1411.7221   -11078.215   -10640.447    1550.8648  0.072381141  0.070064769 
  283000    1421.9742   -11081.386   -10640.439     1601.238  0.071054685  0.070093884 
  284000    1414.8013   -11079.157   -10640.434    1651.1366   0.06215978  0.069867196 
  285000    1408.2036    -11077.13   -10640.453    1700.3673  0.070441881  0.069883159 
  286000    1412.5237   -11078.469   -10640.452    1750.6052  0.062768227  0.069690864 
  287000    1420.3132   -11080.884   -10640.452    1801.4652  0.067310819  0.069628231 
  288000    1420.2391   -11080.871   -10640.462    1848.7994  0.064486491  0.069496391 
  289000    1406.9781   -11076.741   -10640.444    1899.0933  0.059396879  0.069243904 
  290000    1441.8848   -11087.597   -10640.475    1948.1675  0.069456474  0.069249088 
  291000    1405.2208    -11076.21   -10640.458    1996.2548  0.071763426  0.069308953 
  292000    1420.5348   -11080.974   -10640.473    2047.0566  0.071322129  0.069355771 
  293000    1402.4346   -11075.347   -10640.459    2094.6525  0.064631887   0.06924841 
  294000    1398.6534   -11074.171   -10640.455    2144.0283  0.067651281  0.069212919 
  295000     1396.231   -11073.425    -10640.46    2193.0821  0.068658336  0.069200862 
  296000    1381.3474   -11068.799    -10640.45    2241.2209  0.068464466  0.069185194 
  297000    1406.6113   -11076.645   -10640.461    2291.6917  0.063504266  0.069066842 
  298000    1410.5276   -11077.845   -10640.447    2341.7134   0.06986041  0.069083037 
  299000     1429.842   -11083.825   -10640.438    2391.9807  0.071168751  0.069124751 
  300000    1458.0706   -11092.589   -10640.448    2444.5505   0.06715447  0.069086118 
  301000    1394.2305   -11072.783   -10640.439     2492.331  0.066039549   0.06902753 
  302000     1447.253   -11089.238   -10640.452    2541.1236  0.068889283  0.069024922 
  303000    1414.6852   -11079.133   -10640.446    2588.4034  0.077939701  0.069190011 
  304000    1428.6149   -11083.455   -10640.449    2635.7861  0.068533191  0.069178068 
  305000     1432.214   -11084.587   -10640.464    2682.3472  0.078728551  0.069348613 
  306000    1434.2665    -11085.23   -10640.471    2732.1022  0.078065502  0.069501541 
  307000    1419.9785   -11080.803   -10640.474    2780.6355  0.075645868  0.069607477 
  308000     1404.326   -11075.962   -10640.487    2832.6602  0.069751702  0.069609922 
  309000    1435.3366   -11085.555   -10640.464    2882.9313  0.066451388   0.06955728 
  310000    1439.0088   -11086.726   -10640.496    2930.4342  0.075069173  0.069647638 
  311000     1408.251   -11077.166   -10640.474    2976.6559  0.068682427  0.069632071 
  312000    1424.5121   -11082.215   -10640.481     3027.214  0.068305942  0.069611021 
  313000    1440.5225   -11087.192   -10640.493    3077.0093  0.071706559  0.069643764 
  314000    1424.6624   -11082.258   -10640.477    3127.3274   0.07365762  0.069705515 
  315000    1450.4027   -11090.239   -10640.476    3174.6176  0.068847453  0.069692514 
  316000    1413.5312   -11078.822   -10640.493    3225.0411  0.065621983   0.06963176 
  317000    1429.9545   -11083.907   -10640.485    3274.5455  0.069591525  0.069631168 
  318000    1421.5481   -11081.295    -10640.48    3321.4522  0.073120629   0.06968174 
  319000    1420.0882   -11080.854   -10640.492    3372.3906  0.076605763  0.069780655 
  320000    1419.7889   -11080.754   -10640.484    3420.9532  0.073448854   0.06983232 
  321000    1416.0351   -11079.582   -10640.477    3470.4351   0.06991823  0.069833513 
  322000    1415.3668   -11079.333   -10640.435    3518.7665  0.071173365  0.069851867 
  323000    1385.8938   -11070.201   -10640.442    3568.1683   0.06469568  0.069782189 
  324000    1411.6831    -11078.23   -10640.474    3615.1431  0.069593763  0.069779677 
  325000    1417.9342     -11080.2   -10640.506    3665.0575  0.069559489  0.069776779 
  326000    1398.9323    -11074.31   -10640.508    3713.6901  0.076085231  0.069858707 
  327000    1417.5775   -11080.103   -10640.519    3759.6155   0.07112323  0.069874919 
  328000    1403.5802   -11075.718   -10640.474     3805.323  0.075296068  0.069943541 
  329000    1397.8297   -11073.949   -10640.489    3852.7223  0.077156243    0.0700337 
  330000    1419.5058   -11080.674   -10640.492    3902.1391  0.070126339  0.070034844 
  331000    1412.1527   -11078.373   -10640.471    3951.1412  0.073360403  0.070075399 
  332000     1398.052   -11074.015   -10640.486     3997.966   0.06938124  0.070067036 
  333000    1413.7674   -11078.924   -10640.521    4046.5391  0.070900638   0.07007696 
  334000    1393.3992   -11072.595   -10640.508    4093.0778  0.066268477  0.070032154 
  335000     1416.899   -11079.895   -10640.521    4142.3422  0.065981165   0.06998505 
  336000    1425.4776   -11082.561   -10640.527    4192.1036  0.075330507  0.070046492 
  337000    1389.3256   -11071.348   -10640.525    4243.0259  0.073718614   0.07008822 
  338000    1437.5682   -11086.314   -10640.532    4292.0878  0.073220423  0.070123414 
  339000    1419.5813   -11080.761   -10640.556     4342.101  0.073056401  0.070156002 
  340000    1434.5949   -11085.438   -10640.577    4389.6275  0.072282605  0.070179372 
  341000    1437.0305   -11086.178   -10640.562    4438.7062  0.072220914  0.070201562 
  342000    1415.8884   -11079.582   -10640.522    4486.5131  0.069276091  0.070191611 
  343000    1427.2973   -11083.155   -10640.557    4533.2945  0.069563221  0.070184926 
  344000    1396.6952    -11073.65   -10640.542    4581.3146  0.072340053  0.070207611 
  345000    1393.2867   -11072.627   -10640.576    4630.1803  0.068541683  0.070190258 
  346000    1394.6411   -11073.031    -10640.56    4677.5598  0.061370008  0.070099328 
  347000    1409.5798   -11077.656   -10640.552    4725.8818  0.063751659  0.070034556 
  348000    1434.4256   -11085.377   -10640.569    4774.4019  0.072496545  0.070059424 
  349000    1394.9737   -11073.108   -10640.534    4824.0984  0.067042209  0.070029252 
  350000    1421.3603   -11081.301   -10640.544    4873.4272  0.069206424  0.070021105 
  351000    1417.2904   -11080.057   -10640.562     4922.099  0.078200794  0.070101298 
  352000      1409.11    -11077.49   -10640.532     4971.251  0.076643383  0.070164814 
  353000     1397.978   -11074.072   -10640.566    5021.4563  0.071905507  0.070181551 
  354000    1407.9836   -11077.167   -10640.558    5068.2566  0.071471864   0.07019384 
  355000    1429.1499   -11083.734   -10640.562    5120.0499  0.069952008  0.070191558 
  356000    1421.7508   -11081.451   -10640.573    5167.9157  0.070046097  0.070190199 
  357000     1411.809   -11078.351   -10640.556    5218.3443  0.067402055  0.070164383 
  358000    1426.4719   -11082.938   -10640.597    5265.6143  0.075374742  0.070212184 
  359000    1411.0787   -11078.154   -10640.586    5315.2429  0.061886708  0.070136498 
  360000    1413.0623   -11078.746   -10640.562    5362.6159  0.072542256  0.070158171 
  361000    1415.3607   -11079.472   -10640.575    5412.0742  0.061191562  0.070078112 
  362000    1398.2862   -11074.176   -10640.574    5464.7284  0.059747728  0.069986693 
  363000     1403.858   -11075.869    -10640.54    5515.3281  0.068231448  0.069971296 
  364000    1420.5024   -11081.067   -10640.577    5564.6462  0.065416616   0.06993169 
  365000    1455.9915   -11092.075   -10640.579    5614.2119  0.070688946  0.069938218 
  366000      1455.87   -11092.053   -10640.595    5660.6327  0.076001806  0.069990044 
  367000    1403.7407   -11075.854   -10640.561    5707.1551  0.076125897  0.070042043 
  368000    1427.5102   -11083.233   -10640.569    5752.6571  0.070513897  0.070046008 
  369000    1412.9627   -11078.722   -10640.569    5799.7655  0.078089953  0.070113041 
  370000    1381.2372   -11068.886   -10640.571    5849.0693  0.065253738  0.070072881 
  371000    1421.2797   -11081.279   -10640.547    5900.1211  0.065334883  0.070034045 
  372000    1420.5116   -11081.041   -10640.547    5946.3482  0.068391937  0.070020695 
  373000    1428.9675   -11083.705   -10640.589    5996.8951  0.080951457  0.070108846 
  374000    1417.5288   -11080.166   -10640.597    6044.2632  0.080623624  0.070192964 
  375000    1429.3741   -11083.833   -10640.591    6092.2348  0.068114342  0.070176467 
  376000    1410.3833   -11077.931   -10640.578    6139.4315  0.065843355  0.070142348 
  377000    1413.4803   -11078.912   -10640.599    6188.2045  0.071549668  0.070153343 
  378000    1412.1507   -11078.516   -10640.615    6237.9019  0.067361073  0.070131697 
  379000    1403.3133   -11075.761     -10640.6    6287.8624  0.066844656  0.070106412 
  380000    1412.3854   -11078.598   -10640.624    6336.4136  0.076501513   0.07015523 
  381000    1435.0634   -11085.623   -10640.617    6386.8884  0.068403897  0.070141962 
  382000    1394.1139   -11072.921   -10640.613    6437.4291  0.067842817  0.070124676 
  383000    1426.4808   -11082.965    -10640.62    6487.0237   0.06799764  0.070108802 
  384000     1427.401   -11083.267   -10640.637    6538.5291  0.069313099  0.070102908 
  385000    1438.1611   -11086.604   -10640.638    6590.0041  0.064604395  0.070062478 
  386000    1428.3059   -11083.565   -10640.655    6638.9023  0.063832834  0.070017006 
  387000    1420.0237   -11080.967   -10640.624    6688.7565  0.070728255   0.07002216 
  388000    1395.1992   -11073.259   -10640.614    6737.0103   0.06308553  0.069972256 
  389000    1403.0168   -11075.742   -10640.674     6785.597  0.069273013  0.069967262 
  390000    1419.4588   -11080.845   -10640.678    6835.1468  0.072295252  0.069983772 
  391000    1402.8715   -11075.679   -10640.655    6882.7814  0.068862234  0.069975874 
  392000    1411.0151   -11078.207   -10640.658    6932.8024  0.063355561  0.069929578 
  393000    1414.4845   -11079.289   -10640.664     6980.023  0.072299743  0.069946038 
  394000    1424.0823   -11082.258   -10640.657    7031.2914  0.067298704   0.06992778 
  395000    1399.3937   -11074.587   -10640.642    7078.4774  0.070158189  0.069929358 
  396000    1410.8308   -11078.151    -10640.66    7128.6986  0.064211668  0.069890462 
  397000    1412.5151   -11078.698   -10640.684    7179.4454  0.065505616  0.069860835 
  398000    1431.3235   -11084.532   -10640.686    7227.1557  0.070959113  0.069868206 
  399000    1399.1502   -11074.536   -10640.667    7275.8646  0.065466885  0.069838864 
  400000    1427.9012   -11083.463   -10640.678    7323.3052  0.072156851  0.069854215 
  401000    1404.8959   -11076.339   -10640.688    7372.5916  0.070785203   0.06986034 
  402000    1424.1994   -11082.323   -10640.686    7421.4709  0.075956907  0.069900187 
  403000    1401.2515   -11075.211    -10640.69    7469.3317  0.060939366  0.069841999 
  404000    1381.6058   -11069.144   -10640.714    7517.7742   0.06721609  0.069825058 
  405000    1422.7077   -11081.877   -10640.702    7567.0066  0.066894133   0.06980627 
  406000    1410.0592   -11077.973    -10640.72    7615.6314  0.068013655  0.069794852 
  407000    1422.3066   -11081.783   -10640.733     7662.949  0.075906013   0.06983353 
  408000    1424.9184    -11082.57    -10640.71    7713.1741  0.075930029  0.069871873 
  409000    1408.7449    -11077.57   -10640.725    7763.7886  0.077124012  0.069917199 
  410000    1397.7031   -11074.152   -10640.731    7810.9141  0.077128286  0.069961988 
  411000    1418.4052   -11080.561    -10640.72    7858.8702  0.064544656  0.069928548 
  412000    1426.2138   -11082.996   -10640.734    7907.2717  0.076353814  0.069967967 
  413000    1418.1443   -11080.486   -10640.727    7955.4499  0.078580708  0.070020484 
  414000    1405.0797   -11076.433   -10640.724    8005.7314  0.063198006  0.069979135 
  415000    1398.0271   -11074.221   -10640.699    8054.1909  0.070199123   0.06998046 
  416000    1416.0296   -11079.838   -10640.734    8101.1794  0.075001969  0.070010529 
  417000    1427.9088    -11083.54   -10640.753    8150.7004  0.071037741  0.070016644 
  418000    1413.8426   -11079.155    -10640.73    8202.7962  0.071097599   0.07002304 
  419000    1420.5752   -11081.268   -10640.754    8250.6658  0.060892798  0.069969333 
  420000    1424.7703   -11082.561   -10640.746    8298.8726  0.069054846  0.069963985 
  421000    1410.2854   -11078.065   -10640.743    8348.5709   0.06435718  0.069931387 
  422000    1428.2679   -11083.656   -10640.757    8396.8879  0.072141479  0.069944162 
  423000    1396.6979   -11073.838   -10640.729    8446.8432  0.080689657  0.070005918 
  424000    1415.6079    -11079.71   -10640.737    8493.0761  0.076128583  0.070040904 
  425000    1402.6339   -11075.677   -10640.727    8542.4548  0.072774774  0.070056438 
  426000    1446.7985   -11089.386   -10640.741     8590.723  0.068747456  0.070049042 
  427000    1414.6494   -11079.434   -10640.758    8637.5361  0.068634502  0.070041096 
  428000    1414.0085   -11079.243   -10640.766    8687.3165   0.07532052   0.07007059 
  429000     1405.982    -11076.75   -10640.762    8738.2729  0.069136091  0.070065398 
  430000    1443.9318   -11088.513   -10640.757    8789.3846  0.061421993  0.070017644 
  431000    1428.9285   -11083.891   -10640.787    8839.2985  0.064812083  0.069989042 
  432000    1414.3168   -11079.353    -10640.78    8891.0964  0.069172372   0.06998458 
  433000    1415.7836   -11079.802   -10640.774    8941.7786   0.07179191  0.069994402 
  434000    1400.3466   -11075.005   -10640.764    8988.2043  0.077586075  0.070035438 
  435000    1372.8391   -11066.484   -10640.774    9036.6339  0.078710816   0.07008208 
  436000    1395.9489    -11073.64   -10640.763    9084.9918  0.080152972  0.070135935 
  437000    1436.5812   -11086.267    -10640.79    9133.7712  0.069929755  0.070134838 
  438000    1395.2524   -11073.444   -10640.783    9182.9081  0.065306097  0.070109289 
  439000    1387.4116   -11071.006   -10640.776     9232.543  0.069853702  0.070107944 
  440000    1406.9467   -11077.087     -10640.8    9281.5856  0.066889801  0.070091095 
  441000    1428.9556   -11083.903   -10640.791    9330.9075  0.067596836  0.070078104 
  442000    1399.6832   -11074.822   -10640.787     9379.642  0.061246642  0.070032345 
  443000    1395.2108    -11073.42   -10640.772    9430.3834  0.062602577  0.069994048 
  444000     1409.846   -11077.945   -10640.759    9480.2674  0.062081345   0.06995347 
  445000     1406.083   -11076.791   -10640.772    9528.8218  0.069061308  0.069948918 
  446000    1429.8182   -11084.176   -10640.796    9574.8855  0.073664651  0.069967779 
  447000    1410.6809   -11078.229   -10640.783    9623.4123  0.070455764  0.069970244 
  448000     1429.684   -11084.121   -10640.783    9672.1152  0.072853577  0.069984733 
  449000    1440.9337   -11087.634   -10640.807    9721.8465  0.072874805  0.069999184 
  450000    1418.4124   -11080.658   -10640.815     9769.402  0.068561505  0.069992031 
Loop time of 42099.2 on 1 procs for 200000 steps with 2400 atoms

Performance: 0.410 ns/day, 58.471 hours/ns, 4.751 timesteps/s
98.3% CPU use with 1 MPI tasks x 1 OpenMP threads

MPI task timing breakdown:
Section |  min time  |  avg time  |  max time  |%varavg| %total
---------------------------------------------------------------
Pair    | 41923      | 41923      | 41923      |   0.0 | 99.58
Neigh   | 149.12     | 149.12     | 149.12     |   0.0 |  0.35
Comm    | 13.183     | 13.183     | 13.183     |   0.0 |  0.03
Output  | 0.0058374  | 0.0058374  | 0.0058374  |   0.0 |  0.00
Modify  | 10.256     | 10.256     | 10.256     |   0.0 |  0.02
Other   |            | 3.848      |            |       |  0.01

Nlocal:        2400.00 ave        2400 max        2400 min
Histogram: 1 0 0 0 0 0 0 0 0 0
Nghost:        5217.00 ave        5217 max        5217 min
Histogram: 1 0 0 0 0 0 0 0 0 0
Neighs:         0.00000 ave           0 max           0 min
Histogram: 1 0 0 0 0 0 0 0 0 0
FullNghs:      278134.0 ave      278134 max      278134 min
Histogram: 1 0 0 0 0 0 0 0 0 0

Total # of neighbors = 278134
Ave neighs/atom = 115.88917
Neighbor list builds = 10258
Dangerous builds = 0
print           "Running average thermal conductivity: $(v_kappa:%.2f)"
Running average thermal conductivity: 10.85

write_data	Therm_${Tsim}_restartpoint.lammps
write_data	Therm_1400_restartpoint.lammps
System init for write_data ...

Total wall time: 26:19:23
