LAMMPS data file via write_data, version 29 Sep 2021, timestep = 450000

2400 atoms
3 atom types

0 21.434158241832037 xlo xhi
0 32.151237362748056 ylo yhi
0 42.868316483664074 zlo zhi

Masses

1 18.998403163
2 6.938
3 22.989769

Atoms # atomic

650 1 20.377219733488488 31.800220594300388 1.8392482220160176 -3 -1 0
1306 1 2.4972524303096244 0.9805572545670004 1.0701853308732283 2 -1 1
1869 2 21.144615625716416 31.560404427251335 42.808007239344164 -2 0 0
291 2 2.5199168376473837 2.213292591914802 2.7033934867751745 0 0 0
1123 1 5.380508912296413 2.838073893760856 0.5657918606385393 2 2 1
1477 2 12.292183548880528 3.9345281551972286 1.3968171582021598 -6 1 0
980 2 5.196531785253011 3.2203763134254486 2.8656988076795713 -1 3 1
1091 2 8.641831763867918 3.7863854042949954 0.7316875929849623 0 0 0
735 1 5.628477517426577 0.05064229045778865 42.338902299696834 4 0 -1
26 1 9.000661018499788 2.5554690178043367 2.0828083621448634 0 0 0
2000 2 11.520531498778825 2.5260922052489527 41.49735283305022 1 0 0
268 2 14.568648429529615 31.683134404175018 1.9352785118972249 -4 -2 0
1240 1 14.387947282971354 1.3677294367484025 1.4710057600924418 -1 0 1
698 2 12.564691566829822 32.08325744415298 4.258568108302221 0 1 0
1311 1 11.294514990584913 0.7880748041647 0.9615717248297658 -2 2 1
1307 1 10.89258773413352 3.6953201261816506 0.2274771365451882 0 0 1
1744 1 16.24671765095081 3.3454075115368003 2.9579543898259515 0 0 1
1566 2 16.86746789545722 2.451566719775009 4.5501753271433225 -3 -1 1
1605 1 17.695720032920235 3.950031739454778 5.36355836336754 -1 0 1
1447 1 16.009621199561654 0.42797995938167616 3.5723320451254543 1 0 1
2317 1 16.650456051019884 3.2108047227505234 42.70461663302424 1 0 1
974 2 15.19133498680357 2.7225818456677264 0.43345013867242366 -2 0 2
679 2 19.991033612701617 0.7203617410783046 3.1992791965855134 -2 -3 0
802 1 19.16631729078423 2.256489928781201 0.11327946910554942 -1 0 0
694 2 17.40589824107244 0.28542063427059006 2.6615118288884743 -2 -1 1
550 1 18.42603302494312 1.9154370934730844 3.0619413638126804 0 0 0
189 2 17.886242815873967 3.126739732964515 1.7317078789017952 3 1 -1
1537 1 21.230818546446812 4.360257564143581 41.43438677235613 1 -1 0
806 1 4.649451790474327 4.67957844868622 3.491994747184369 1 -1 0
253 2 2.5570036133058287 5.0961236385908695 2.0338245468030647 -4 -2 0
1541 1 4.840053254374236 7.71711738642655 2.4798586520619903 1 0 1
1877 2 20.65609616846115 4.475314409186882 1.5096563447061124 1 -2 -1
1076 2 2.0951167488015603 3.6965173399111304 42.704806070150624 1 -1 -1
708 1 5.802205978362922 6.5998885543548935 4.3030609211551205 -3 1 0
1460 2 6.8192905206111885 7.661507976484841 2.542548356455223 0 1 0
2272 2 4.102492017336886 6.44915763721631 3.797199393275448 -1 2 -1
1216 1 7.8513800552938475 5.536094442477366 42.488756029266426 -1 -1 0
1696 2 10.502043120967954 2.235050067474379 1.7913369310899285 -1 0 2
820 1 11.383773640792477 5.256246682775558 3.311644862672144 -1 -1 0
23 1 12.243242613059653 2.667180661187612 3.087043253629888 1 0 1
1183 2 5.85275126548397 7.32131547557028 42.41847359972656 -2 -1 0
1762 2 12.00094564243785 6.55468299338951 0.9635519109232543 0 -2 0
1582 2 14.283623462541643 2.9437475601949155 2.927308773053633 2 1 3
1621 1 11.579398467747808 8.301029848451032 3.285652877355815 -1 2 1
539 1 14.072058214608948 4.041112277769308 1.1137103475899393 -2 1 0
341 1 14.361193051214148 4.965283599309605 4.003190700707104 0 2 0
981 2 15.288032838269627 4.969736766574158 2.4952932606041207 -1 0 0
3 1 16.98453569467599 6.264429453472537 3.6762102212619436 0 0 0
1669 2 18.240653301261656 7.722819710139034 42.072796289962255 -1 -2 -1
111 1 0.0760540781255159 6.050960323216624 1.3370434653525622 0 -2 1
2202 1 18.730000762364288 4.8094130999138756 1.9116467122905467 -2 0 2
134 1 2.0482710373752293 5.352995489586706 42.56876204979422 -1 0 -1
2306 1 2.3148372767852106 8.848786775717395 0.17139578774431277 2 0 1
1269 2 3.4511583258879925 8.6188305340709 1.509034515194968 3 0 1
1891 2 2.754189593176928 9.107222678660365 41.4410103256723 2 -2 -1
2269 2 0.3624928229607817 9.713004267020539 5.854638577723323 -1 0 1
1685 2 0.4279439014688018 9.212988705417008 0.16768961155696502 1 0 -1
2127 1 3.548705586062988 10.207342625523546 2.311843064982874 1 -1 2
2264 2 8.372797536208212 6.435260410859425 1.158176260931871 2 -1 1
1310 1 7.438037112049684 7.942895486778886 0.816322377510606 0 0 0
404 1 9.544396400389504 10.387174377805763 3.50696239971702 -1 0 0
1458 2 7.714466188484909 10.239781569775507 3.06754686009678 4 -1 0
14 1 13.131018356995607 9.250439989072053 0.12426217659357008 1 -1 0
494 2 13.133874258504152 13.365980136014134 42.15028575069891 0 1 0
1259 2 11.158919369176449 10.047645600929538 4.330710400807553 -2 -1 0
241 1 12.52970685760619 10.949309638946824 3.6571262283432326 -2 0 1
360 2 13.567335397832325 8.610612457338279 1.7112917384520487 1 -1 0
897 2 16.09517490080593 10.900554749359703 0.8320417568093867 -2 0 0
632 1 17.641045016998728 10.767013560372613 1.4292298499267744 -1 0 1
1180 2 20.048418990716613 8.240490738595678 5.352422976920894 0 2 0
15 1 15.85009588420018 9.015495513239474 1.5566553462080273 2 0 -1
1939 1 18.807153482997126 7.934811675379192 1.0542405658249585 0 0 2
717 1 20.861088522384282 9.438080262181074 1.6244834760895612 0 -1 0
1194 2 20.385683858761755 7.677701018840909 2.307927638196466 -1 0 0
2322 1 2.407408759699392 13.513290348520567 2.1687827313242964 2 2 1
313 1 1.7586208485684667 11.408717311164247 3.722291569416405 1 -2 -1
470 2 0.7958757595107739 13.187384149265526 3.579243367712451 4 1 -1
12 1 6.525656667796239 9.96419696723617 1.9574430483066592 2 0 0
1859 2 3.9361162276075667 13.117968184278116 3.207003413190469 -3 0 2
2180 2 4.887950633783986 10.283741221529583 0.8897915337501049 0 0 0
770 2 9.77938697092106 14.880354998701403 2.4042695417113906 1 -1 0
701 1 10.118175291493568 10.084797702801936 0.5278572080739017 -1 0 0
1064 2 10.681273067737202 8.971858030788944 1.8662764337806816 -1 2 -1
2015 1 12.128528470602063 13.318060783795913 1.8798700510089328 2 -1 0
1672 2 13.612181386860923 12.041153245996203 2.5931478084321333 -1 0 0
1740 1 13.873191757933533 13.302273199071566 3.855461825245891 -2 1 0
2165 2 12.847076951291108 14.678443585717623 2.6553561249650066 -1 0 1
1680 2 16.003997892922172 12.846536073179468 42.82529307237154 -2 -1 1
1204 1 14.512622971326033 11.913449872602019 0.13572844176028043 0 3 0
1358 2 16.774677154158447 9.692346515605221 3.002304557962896 1 -2 0
179 2 0.17727975702053275 10.547105929890481 2.8923595474216532 -2 -1 0
303 1 19.50079087702347 10.494886226474408 41.93706347573308 2 2 -2
339 1 19.72636791608347 12.27004804334558 2.4177340883680576 -1 -1 1
1996 2 19.643879976605295 13.889731928730576 3.1255215952395363 2 0 -1
57 2 1.7426909650005165 15.085244934485164 2.5057737511296327 5 0 0
96 2 0.9390692678580453 13.650536062870946 0.8589238329124805 -2 0 -1
919 1 2.204140672089615 15.214215590075801 0.21385947198845182 0 0 1
306 1 4.31614133386863 13.138895426538728 5.097096273564875 4 -2 0
785 2 6.21451500450286 14.865374321400518 1.2566866389412354 -4 -3 1
1485 2 4.036002497893185 14.512309350633831 1.5446091814846645 -3 1 -1
464 2 8.321010707267423 13.003747575413056 3.2107030283554336 -3 1 0
1120 1 4.37988392558845 16.100889453564484 2.5248099285737697 -2 0 0
517 1 5.566156832899591 13.430650355696441 2.35731829870898 0 -1 1
242 1 9.185041770690951 12.989382836008016 1.7223469669731113 1 -1 0
942 1 12.909635133667532 16.65041690128308 3.366891783406582 2 -1 1
1803 1 7.419145147490541 15.038519531587811 3.0554618893883285 1 0 0
2011 1 8.918517839200998 17.93598298844127 42.776398336248185 2 1 -1
1093 2 8.097306991547157 17.757539480701123 1.4756788446030205 0 0 0
1020 1 8.686499070603736 17.147753785130302 3.659789895222021 -2 0 1
1676 2 14.614371178989783 16.79131616067807 2.905957914469059 5 1 2
1790 2 11.323974089523109 18.25514660858526 1.6453377166745042 -1 0 -2
2116 1 14.873714466601125 15.424500798315691 1.7002001400388262 0 -1 0
2374 2 15.83923891157071 14.273615926380433 2.5580555857399476 0 -1 -1
548 1 17.024353720247007 13.444797313763896 1.4109461177299025 -1 -1 -1
2300 2 15.471361050945479 12.50660369527834 4.531473501413818 0 3 1
39 1 16.3549922892223 16.482789680760625 3.4599471398380675 -2 -2 -1
1956 2 17.878503811525896 16.761760871216023 2.627758596230919 0 -1 3
1414 1 21.366477750582654 14.455865885260092 2.1523252988873516 0 0 0
154 2 18.21191458221041 18.63189384006027 42.20886032717763 -1 -1 -1
1233 1 19.554417750209016 15.765293808410636 3.367306353808396 1 1 1
68 2 4.0801154710429985 17.741322743340355 0.415885039089232 -2 0 1
356 2 3.2770547320394137 24.424036708471537 0.3137244427389375 5 0 0
1714 1 0.6737661413866891 17.12590447084179 3.0652332449700155 1 1 0
541 1 0.4616982726762391 20.48566364735737 1.9491699891493648 -1 -1 0
1446 1 2.0804597507659404 17.999800347811522 0.48321900805366336 1 0 1
651 2 6.0516471675891585 16.511394666229595 3.218481512769307 2 -4 1
1444 1 5.609283126146155 18.816116507243773 3.893217007233994 -1 1 -1
2319 1 4.671605013176445 19.439889698875838 0.8319178625345488 2 0 1
1677 2 7.2134256483451225 20.879261000557175 0.8933386426143781 0 -2 0
1131 1 7.565927817724914 19.593427004022356 1.750071489325135 1 0 1
1367 2 10.939941254278297 17.56520628587997 40.7112905855677 2 0 -1
420 1 11.270482299603296 19.907862001038605 0.9249997820988074 -1 2 0
1750 1 14.496872103851231 21.021127671765875 0.23623976861619472 -2 -1 1
2187 2 14.688357143533057 20.32708196364268 2.2568116208590214 0 0 0
1483 2 12.835275548666758 19.382365226558527 42.66130276739656 1 0 -2
968 2 16.550490124060673 21.91975517054171 0.006400445319688105 2 0 1
2221 1 15.594418497927332 22.222475116549465 2.606813226998811 -2 0 0
350 1 17.485982094043038 20.199144233377304 0.39610172856927867 -1 0 -1
946 1 20.11973869359775 18.1482855387804 1.6347735924756084 0 0 0
1215 1 19.196918869656592 21.00918204838084 2.428723875209409 1 -2 1
205 1 20.101763858650187 20.21586567696524 42.11489435866144 -4 2 -2
1971 2 19.13429885571714 21.14732154808916 0.3522272983910144 0 0 1
1462 2 20.708235020143277 20.526261373099214 3.095806422385089 -2 0 1
1439 1 2.4894017389231493 22.86627127626365 1.045890564005859 1 -1 2
1397 2 4.149854395526098 21.411779720834282 39.71042267510978 1 -1 1
202 1 0.41041172756559696 22.302985155252756 41.634788557120565 0 -1 0
1145 1 4.87268465583613 23.8162121152959 1.71049343380649 -1 0 1
2199 2 4.663823231550787 20.960164969503552 42.724016553702185 3 0 0
1682 2 4.129474742023364 26.096573075559803 3.1763897843259215 0 1 0
1172 2 10.13315566014144 19.974909992833954 42.44907164978873 -2 0 -2
192 2 6.224411150427772 23.88792018646969 2.900696807663036 -1 0 1
326 1 11.313488197168475 24.68454216593795 2.456165934827795 2 -1 1
2061 2 5.793998779131537 19.144090067691675 2.258813025516796 -2 2 0
1432 1 6.824888435192325 22.35083519171101 1.9940799882826092 1 0 1
1187 2 8.789736761800992 23.080249520123736 41.98433357932253 -2 0 1
297 2 11.34631911063645 23.287157190996183 1.2135046273440049 3 -1 1
549 1 8.912069425442562 21.814371615944033 0.33252274903057955 2 0 0
2142 1 13.077146764127994 24.56828057485156 0.5540718805433602 -1 0 0
198 2 11.00732888608765 23.507965728437128 3.8197550913467184 1 -1 0
654 2 13.910855530560095 22.707223611226205 42.25732186498604 -2 -2 -2
2303 1 18.43741396844912 22.41144250356014 42.096087819791784 0 0 -1
776 2 16.21454882715338 24.519493038243798 1.6518320763556995 0 -1 -1
1550 1 15.87695822876254 23.608796427939254 0.016216320285010213 -1 -1 0
2262 2 19.72198080153008 24.96453845685823 1.596413026838731 -3 1 1
2154 2 0.10871753638893068 23.328701912623234 2.6361600506095146 1 -3 0
2355 2 20.550663645709523 25.61669169829958 3.8870687516679885 -1 0 0
1535 1 17.151525751470082 24.54293408060725 3.15572021135123 1 -1 0
1706 1 3.7062496531847393 27.641503523403923 2.603999678747804 1 -1 2
29 1 1.7150849065744107 27.99574447377009 0.9566976445398255 2 0 -1
1000 2 1.832861142602202 26.30990721122686 42.36576526367028 0 0 -1
1667 2 1.1609261245874112 26.79381625089026 2.459196371136266 0 -1 2
1511 1 7.118318721837713 27.16926975273425 0.15445737092836334 -3 -1 2
2254 2 3.138407322534674 28.606799558818754 42.05239606410081 -3 -1 -2
1169 2 5.571150499181712 27.929180846456664 0.9647911451688388 -1 -3 1
2314 1 7.898506304928885 25.26024774102341 2.3900257213735987 0 1 0
1974 2 9.46529782831196 26.374254252249035 2.8170266034773124 -1 0 -1
2208 1 8.441943316556566 27.434597949153037 4.38266085415986 1 0 1
2290 2 11.215289027268787 25.527187106202796 0.7490299476529902 0 -1 1
1032 1 12.685385236770795 28.40258475357022 0.42891159037890336 -1 0 0
945 1 10.198774112744408 27.042099793311102 1.286773680333168 -2 0 0
375 2 14.310489490617277 25.91213627501 42.754876210068076 -1 -2 -2
2397 2 19.351136153949145 27.714903631903574 1.5350847060459984 2 -1 2
2017 1 15.12448738530578 27.297537989414206 42.82286129854815 -3 0 -1
1191 2 14.817040274263107 29.152365352364928 42.434014822845995 1 0 -1
1497 2 13.138635716142746 26.10539853257956 2.847882792541286 0 0 1
2238 1 2.096954976680075 25.272942692707005 1.4610335441337068 2 -1 0
749 1 17.762589015269548 28.409855322545447 1.1900474762324402 1 -1 -1
1479 2 0.6274146247586991 23.761572814123422 42.80422217399087 0 0 0
1731 1 20.87127310180461 26.38146081939218 1.2907793395366032 -1 0 1
1741 1 18.28360160002275 25.432114585802243 0.341757202584134 -2 0 1
977 2 2.9071748283237113 29.03425931562307 2.00195793610058 2 0 1
605 1 2.4330465385184175 30.605991037090774 2.8318012977770435 -1 -2 0
7 1 5.467226280425714 30.397110535125464 4.454693611255852 -2 0 0
2296 2 5.153508387315569 29.06699510360101 3.375648417180308 3 -2 0
481 2 3.256576734635035 31.374781790219373 1.287892294777894 0 -1 0
1925 1 6.426212743573441 28.605044376295684 2.129231278364564 -2 -1 -1
1725 1 4.396722047245985 29.500191186729605 0.626869312090084 0 -2 1
1607 1 8.460985754941065 31.47072782464592 1.148208789196221 1 1 1
2177 2 9.449637904721182 31.318071818563613 5.27115504968164 1 0 1
709 1 10.643365095273833 29.65802891227221 3.0037563242964826 2 -2 0
786 2 7.799343421884936 29.912001895014896 3.1689213813915873 1 0 1
2183 2 11.283650408721027 28.639305592786883 1.345400434451713 1 -1 0
1037 1 13.991690810614424 29.010407931606778 40.729363347617486 -1 -2 -1
1588 2 10.941117590135446 31.299014941423017 2.179546608715422 -3 1 1
1365 2 12.08649704414568 28.72289782424122 41.46041686902451 1 2 -1
641 1 14.414885965566327 30.901583950913604 0.17593876727186367 1 0 1
1008 1 10.10908576081406 29.245537657174008 42.44069738581727 -1 0 0
1319 1 17.843706654743823 30.4599477200214 3.2694874907954397 -3 -1 1
852 2 17.10296949256068 29.86493988205765 1.8277861218906035 0 1 -2
346 1 15.341664492342638 29.43179573790444 2.0328358774566784 3 0 0
2172 2 0.24338899081235116 29.81196682149604 3.4640596369192664 3 -1 1
1640 1 19.953114935195277 0.5999501556935417 4.927471991442027 -2 1 1
27 1 20.459639863328963 29.04579104035402 1.7966760545763776 -1 -2 1
1764 2 19.070400454866217 30.436868496758034 1.6764751575708248 4 -1 0
2235 1 4.132403017883859 1.791949839866861 3.2887717603117324 1 1 1
1392 2 4.2698239605797825 4.71087349100461 6.006654372057679 3 0 0
1772 2 3.857706508946548 1.5370064715351817 5.395910983288271 4 1 2
419 1 4.912459151607604 3.0055243208508267 6.096767431754412 1 0 -1
2245 1 1.6348184874171594 1.8454733158878331 4.109577024208581 -1 2 1
2385 2 4.6927801869396175 31.947618666757077 3.994711070405439 1 0 1
1833 1 6.731441117970577 2.892037624506772 3.7241631571457967 2 1 1
2288 2 13.088238236058181 32.09244738696558 7.148849436807302 -1 -2 1
789 2 8.804859606620035 2.2963509870830987 4.271426575117727 -1 -1 0
1450 1 8.032814201720045 2.0189465759544305 6.3077784873092675 0 0 0
1210 1 10.07110121723693 0.19464833460630684 3.867890980523944 0 1 -1
480 2 6.353269492526414 3.480944004852802 7.695647376673495 -1 -1 -2
1108 1 7.618903825295415 0.27336959241958425 9.018123759996252 0 1 1
1045 1 10.121602156711552 3.5708558248233597 5.093571348874133 1 0 0
1710 1 12.834297075180075 0.9206872962519513 5.73785582857984 -2 2 0
1874 2 9.362650557555229 3.3028843998640967 7.15003834254176 0 0 0
178 2 18.9587582711467 2.1000263950059344 6.3136951713285265 0 1 -1
103 1 16.068850545562434 1.6480810559155679 6.393683006458931 -1 0 0
780 2 11.407668748468613 2.557151398244399 4.804452017332872 -3 1 0
2334 1 1.7016166864686795 3.6971294946929247 1.39444013122823 -1 1 0
88 2 19.080230751237725 31.07292697558395 5.38047229010107 2 -2 0
310 1 0.0007023557069523179 1.7668494173300313 6.662221828358011 -1 0 0
254 2 5.396977386071793 7.886399125969628 6.422539008732924 0 1 0
800 2 0.8541627171025196 5.026698701569128 4.881894842911926 3 -1 0
231 1 4.053861405218431 6.4383503194326215 6.399258675652346 1 1 -1
1820 1 3.9902110507271824 6.354069910163564 10.020060377833325 1 0 0
1719 1 2.342503605490144 4.116790499294968 6.149764589524364 2 1 0
1283 2 6.441697908931472 4.824004442207491 4.10028556484627 -1 0 1
28 1 7.573196052512445 7.516600691467141 7.226656550298117 4 0 1
1577 2 7.127377631910841 7.161330569850568 5.019808015764005 1 -1 1
585 2 9.521100133529828 4.860366889887352 3.483544931293682 0 0 -1
1539 1 7.728243202282244 5.297281823752929 2.988167321311686 2 -1 0
1723 1 9.981238168380788 4.755737392233437 7.800290431563876 3 1 0
2062 2 13.882204810962886 6.873864564562591 6.886097329224877 3 0 1
209 1 12.736403540765151 3.626657387302826 6.083881798022231 -2 1 -1
224 1 14.819578191502908 4.220491068308952 7.128584621861303 2 0 1
959 2 12.288447908210987 4.6366392045327265 4.642394462189221 -3 2 0
199 2 17.016116671364788 4.330331638136873 7.793254186681121 -1 0 0
2393 2 17.95428802391639 6.26783544212471 1.8114487481991524 1 0 0
979 2 14.29355829619238 3.913874255805518 9.011622899379516 -5 0 0
1277 2 15.885613427890712 5.318571436723831 4.99840340149226 0 1 1
516 1 15.684182348095101 6.703359296872966 6.272523060620409 2 2 0
2251 2 18.856502504039465 4.095462474639631 3.8655731674046563 0 0 1
841 1 20.629727380416057 4.084043371720306 4.579026475958439 0 0 1
1540 1 18.78012747276886 6.8825539507745335 6.401471429877084 -1 1 1
1872 2 20.527603576237773 6.9246056530388485 7.524197214671888 2 0 0
2044 1 19.372278856160623 3.9776632472576896 7.70165542142761 0 0 0
195 2 0.9066510424489246 7.24820373009738 4.462309208878771 2 -2 1
1613 1 1.821182226235898 8.886216627644593 5.145466409290514 1 0 -1
1643 1 2.0467764285256753 6.082073601709658 3.6182404983013288 1 1 0
1810 1 5.1094955389022845 8.68149921495657 8.002864764580995 -1 -2 1
294 2 9.344022682124885 8.26323296689112 7.0454418728520105 0 -1 0
438 1 8.090740809353642 10.25276248794404 7.027441665344654 2 1 1
2270 2 3.309507818037883 9.960844634324262 8.095224436042619 -1 2 1
1530 1 7.465829754473888 8.634063562098554 3.7928270204486214 4 1 0
1811 1 9.621414113787274 7.158843748854105 5.822436463690504 -1 -2 0
791 2 11.4752706162251 7.480739178484227 4.865683382710562 4 -1 0
2305 1 12.553302558128058 9.119432820712687 5.529980982690601 -3 2 1
613 1 12.592715956157809 6.184173816602673 5.608265036294077 0 -2 0
2299 2 13.256679336332185 6.4025176275770965 3.848737201628811 1 0 -1
471 2 20.194948093961433 5.872740441116222 5.573105783825685 0 1 -1
2012 1 14.49752898638637 8.186191890921918 3.872729014187475 1 0 1
556 2 15.464743512417508 7.332571724089634 2.355364618689121 -3 1 0
1553 2 17.461313879349277 12.527505829535794 2.814898758377575 -1 0 -1
1633 1 20.479604281300062 7.11983618321321 3.9950663718414225 3 0 1
9 1 20.60275496265388 8.584977604834219 6.9250932711043784 -2 -1 1
1502 1 0.3781857697802386 6.307823976892806 6.083271664138491 2 -1 0
2196 2 2.733849829038252 7.948068629512186 6.539642520294034 2 -1 0
975 2 3.264871399280654 10.152408912210744 4.288564788509606 -1 -1 0
604 1 1.6136798656166358 12.197145236355022 6.859501743330442 2 1 0
275 2 21.06411902825707 12.919752385448403 6.10311495200461 -1 0 -1
1101 1 20.697021931819698 13.114292873967392 4.387676567912657 -4 0 1
1804 1 4.704861951019386 9.380709822254433 5.1474663733549715 -1 -1 1
461 2 5.708540748938368 9.3254200046963 3.73543555691179 0 0 0
2243 1 6.339776407714622 13.736416730041972 6.812238608181383 0 2 0
566 2 9.632795948494588 13.099363943855105 5.884275912719259 -2 2 1
1200 2 5.932958534895234 13.015176577504198 4.838610750089794 -2 0 -1
1105 1 7.376619761434908 12.262131802223974 4.278680447846068 2 1 -1
2052 2 8.847045025908082 10.67051298449901 5.270082028570117 1 2 1
1978 2 9.34496898443126 16.92175372353333 7.043260235219101 1 -4 2
206 1 9.576601055207908 14.076550569283322 4.235099522695144 -1 -1 -1
311 1 9.879739388680603 13.063696407172003 7.395897331980481 2 0 0
1995 2 13.933554940866484 9.399100535593966 4.620462548476697 0 -1 0
822 1 10.748085018834354 11.311314660421893 5.6876696560311455 0 2 1
2100 2 12.001764369096577 10.96114698028657 6.931256190018155 0 -2 2
692 2 12.455910403632792 12.58874035658895 4.755483745940094 0 -1 1
1943 1 18.024258666639266 8.838858344976822 4.340942239456364 0 1 0
1094 2 17.364812049667886 10.042033443125863 5.509467981324841 -2 0 1
30 1 15.489007992969682 12.540753727709305 6.294089380935301 1 0 0
1409 1 15.607353617841918 11.282186597182548 3.4021891072510106 -1 0 1
1987 2 14.396047512454826 13.667818588501882 6.604276948516713 1 -1 1
1350 1 20.72872562209478 10.019552014754112 4.6886218841095895 1 -1 0
954 2 19.635757969725226 11.564514009526448 4.093557159259515 -1 0 2
214 1 17.876994234894354 11.509045730040897 4.7065979584822335 -4 1 0
865 2 19.99336811707067 13.510468698341516 8.05522217326346 0 0 0
433 1 2.8426490326051463 18.149186387132172 5.47158145466857 0 1 0
1325 1 1.251724119095685 14.614880572926253 4.14392436199837 1 -1 1
600 2 2.7122546263232543 13.147773279909838 5.884417702673812 -1 1 -1
948 1 2.4907507602422636 14.64337944128678 7.287352762281892 -1 -1 1
2194 2 2.073498588584573 19.26242331097899 7.354827597628324 5 -1 2
85 2 3.8096572517031073 15.4874335595311 6.290365478347695 2 0 1
418 1 5.041882495434043 16.30158467826804 5.060787016512516 0 2 0
1295 2 8.568634028313799 15.53385115106226 4.5978383753363765 -3 -1 1
1340 1 10.838096130710221 16.304026416343078 5.9707967086656195 -2 0 1
665 2 11.47689948319917 16.951380825197322 4.516285709952497 -4 0 1
424 1 11.110350140113038 18.695382760826234 3.54082869044422 -1 0 1
123 1 16.697988950975162 13.98252837160468 4.152999304462317 1 -2 0
2075 2 14.858852963079103 19.631685758875875 4.8612292465640525 -3 3 1
720 1 18.478660225183443 18.147242360089063 3.9361330914853117 2 1 0
967 2 17.613747844789476 16.54375700336412 4.62629576522109 1 1 -1
643 1 17.57278153191767 17.027184855783958 6.548498854606495 0 -2 0
255 2 21.31362123799991 15.34897265211747 5.081555979275037 -1 0 1
70 2 20.55412732039734 17.730571765082363 3.4478027410841166 1 -2 0
1413 1 20.720170981587014 14.483330116327455 6.687784725398496 1 1 0
1373 2 19.715725921706298 16.238863331178816 7.204401586669924 -2 0 1
554 2 17.360887475892177 12.761509350663491 6.6064869633141425 3 0 0
955 2 2.2322122490736183 21.560606909161564 2.1657101903695146 -2 2 1
1876 2 2.909356678785076 21.626318113817167 4.669232324307899 3 0 2
83 2 2.077891965607115 17.322727720319396 4.279447370411884 -1 0 -1
31 1 20.73423573589675 19.40731145319033 4.670260949700528 1 -2 0
2109 1 3.263583077677119 20.813857623408218 3.282108326646009 1 -2 0
2054 2 4.337254298983504 18.913554164990106 5.1540833192957525 0 1 1
1917 1 4.755417141553108 20.57164970567932 6.114107101354202 1 -2 0
767 2 6.085153991089823 15.724426092437644 6.279786165080938 2 1 -1
1801 1 8.87733084831211 20.572740923665947 4.221752686116535 -1 -1 1
779 2 9.366094060240261 18.835699273380754 3.707489201849585 -3 2 0
1486 2 9.877996139292643 21.21506278311519 5.609794810042452 1 1 2
892 2 8.648277419262026 21.04532361684674 8.752351804056895 0 -1 0
1610 1 8.138865940650394 15.453033814990176 6.2973035171147105 -2 1 0
2295 2 11.821254035640093 20.457186670002454 2.6723311899168856 -3 0 3
1428 1 13.653150152322794 19.881714761498813 3.462751165897441 1 -2 0
781 2 8.216161636322319 21.464283720373977 3.0405762727017622 0 -1 0
1197 2 17.87592698216481 19.58721832241592 2.143728956570957 -2 1 0
141 1 16.183113420320787 20.432216378043176 5.985438898442079 0 -1 1
331 1 16.43868216714546 19.939119473136326 2.7637306863912676 1 -2 1
173 2 15.125746628530509 20.762595514759745 7.600414873189387 -4 -1 -2
2171 2 18.950014702636885 19.470080173573614 4.905972071863979 3 0 1
1912 1 0.06435242474759857 17.213154958483184 6.5343729788676255 3 0 1
1474 2 2.2011178798329603 24.026268114674487 5.619140920724517 -2 0 1
1443 1 1.6442075228152082 22.871533813513437 3.53366707629233 0 -1 0
276 2 6.077680432663149 20.47052348909126 4.651858250375178 1 -1 -1
1651 2 4.158509906186686 21.92936964030314 7.448230968745631 1 -1 0
304 1 3.667086981233697 22.835620200842552 5.872830084600214 -1 0 0
208 1 6.8892147662888235 21.97449044276121 4.48655635659967 -1 -1 0
2083 2 5.389539205704417 22.766394498085297 5.191820491986378 -2 1 -1
615 1 6.006309521422157 22.845201816245797 6.8917693383079195 -2 -1 -1
2213 1 9.307901372517138 23.280918139058212 5.42047885041433 -2 0 1
1157 2 7.789078006446258 23.42371228758938 6.507827128476616 -2 -1 -1
1437 1 8.641378901080477 22.078335728148826 7.460820931410623 3 -1 1
50 1 10.1555187877542 24.930984469365182 8.192872617797738 -2 1 0
551 2 10.564114102639008 24.624660381740636 6.329285769010509 0 0 2
447 1 11.930061508137168 22.308624743039182 2.5743034909234748 -1 -1 -1
1290 2 13.948690771859816 22.90274335888915 2.7605341472814886 -1 1 -1
2014 1 15.110877220325632 22.768949949011454 6.258005733439108 -2 0 1
1473 2 16.838082151449264 21.52864030802201 4.077711933297986 0 3 2
2121 1 13.819400245274243 24.247119115798732 3.9904548207128667 0 0 2
1815 1 14.833831247483023 26.11999403882804 2.520855279860461 2 -1 1
1988 2 18.50856781829778 23.69797779924839 3.9261100185979174 0 -1 1
670 2 17.52266990625058 21.954880746966783 7.072735972744185 -1 0 -1
1509 1 19.91351106259978 24.05074211740604 3.1886253676969543 0 1 0
229 1 0.47309666891537216 27.05663533471503 3.9992138375874124 1 0 0
1998 2 2.5602754690769154 30.924598085164686 4.637923381235069 -3 -1 0
502 1 2.9673492801302586 29.27178477854637 5.224282285407605 1 0 1
1757 2 1.2264748695319634 28.326224894500054 5.184094715279291 2 -1 -1
66 2 2.953361776572255 23.962926600857106 2.554572507711961 -2 -1 0
569 2 4.429907284959552 29.17602237018699 6.264404106818319 1 -1 -1
2339 1 5.717473375710354 25.143073679322118 4.448141948735106 0 -1 2
1532 1 5.5842439048480434 27.84858237212286 6.323060554366951 -1 -1 1
1246 1 4.5312286867796905 25.754917873769806 7.520264279104289 2 0 -1
1242 1 7.594371793915562 25.156293973009586 6.539597322827874 -2 0 1
2287 2 13.060832673299787 25.161969749252716 5.459503179827744 -1 2 0
1461 2 12.340231511110161 28.40225851379089 6.926612999405719 -1 -1 1
990 2 7.708890237976836 25.490358105232016 4.29427508151783 2 -2 0
1942 1 8.278007321813126 28.205175891438415 7.8759907575481245 -1 0 0
1338 1 11.111594041117916 25.642424294795195 4.857101152776714 -1 -1 1
1834 1 12.84359239202012 27.809763822100965 2.9575065789943538 1 0 1
563 2 10.338454046584337 27.681146232132303 5.14880855941175 0 -1 -2
1938 1 11.564820629487045 29.00030649495424 5.5214903332534915 1 -1 1
1656 2 15.569291984933855 23.874536175508503 7.684300587722761 -2 -1 1
1897 2 16.023553412245274 27.71447993919865 2.069586100948787 3 -2 1
738 1 19.345455523910232 26.967879171052555 3.63057444688003 1 -1 -1
856 2 16.08654395660945 26.264814435151937 4.002966365162705 -4 0 -1
2164 2 20.009056160800537 24.030294599484026 6.808618710964199 3 -1 2
2381 2 19.930044718625 26.97005259194224 5.5266343909477 0 0 1
1611 1 1.1265372995170757 24.11263250604287 7.123440855635706 0 -1 -1
1884 2 18.576684714485115 28.914412466279977 4.130358962880129 -2 2 1
1128 1 20.03221433383679 25.273139681187036 5.595557261018631 2 0 0
652 2 4.784789516593928 1.3186600386201235 1.399203043415254 -1 1 0
740 1 0.598748534969462 30.49492091928037 5.0731249046283144 0 -1 1
407 1 5.891293907912697 30.467019893346574 6.848641192511533 1 -2 1
95 2 5.176793723371154 32.1358566362927 7.204929250457448 2 1 1
1654 2 6.907759930742173 31.4505873320724 5.490991138528352 1 -1 1
626 1 8.104332773554514 30.26484775195732 4.758284517193568 -1 -2 1
2025 1 5.289207357138695 31.806592486643517 2.24838901090224 0 0 2
1528 1 5.4771634910056415 0.6247803002913248 5.6767103245957315 0 1 1
987 2 10.16503452041556 30.478396312851853 8.029788313345861 -2 0 0
1062 2 7.419671186878113 28.588541998759126 6.045234822571338 1 2 0
2007 1 9.04416726949568 31.799823949156618 6.94892975646059 0 -1 0
1569 2 13.594072784806809 29.26321219697903 1.8229571635036455 3 -1 2
8 1 13.075489342751112 30.848467680646877 3.021280037482951 -1 -1 1
240 1 14.483889158256199 29.17257699579544 5.238960344408145 0 0 0
164 2 17.81812443370602 31.450271455045915 8.168710274450431 3 -1 0
69 2 14.9573159360803 29.602654808478963 6.8980373153996535 -2 -2 0
818 1 17.13405650046709 30.760258796143976 6.07408196682102 -2 -1 0
2090 2 16.15369416695608 29.46004435957246 4.762556838677161 -6 1 1
2260 2 17.799299124900156 29.09205362770464 6.910343711304531 -2 0 0
1304 1 16.885441125457625 27.874137432849405 4.093049845743398 1 -1 0
1952 2 15.979212425049676 0.27364449805545876 5.470258023687698 -1 0 1
1481 2 20.896546449996936 28.445450785195433 7.6362704904590935 -2 2 0
1826 1 19.6289075012191 29.059352567917 5.718263105338753 -1 -3 3
476 2 1.8165964331427502 2.0093738605204834 6.107348610015446 1 -2 -2
807 1 2.18938081851737 2.0671083648683686 8.265701471581233 0 -1 0
777 2 6.603342163250754 2.5776860623032896 5.3156512808650165 2 2 0
166 2 6.249871252569257 0.10424655602118203 10.219845743194746 -2 -2 3
1382 2 9.280582212642587 1.0236007910228369 9.768213407549943 2 0 -1
830 1 7.182264859226392 4.485146412274573 5.9356934298309145 2 0 0
1201 1 6.045850887967809 0.6828234563348661 11.966148407082176 -2 1 0
860 2 11.49898440867949 2.1499444271247894 8.4929562078296 -2 0 0