#FLiNa 100 atoms 2,1,1 ratios

100  atoms
0  bonds
0  angles
0  dihedrals
0  impropers

3  atom types
0  bond types
0  angle types
0  dihedral types
0  improper types

0.0 10.75440569135805 xlo xhi
0.0 10.75440569135805 ylo yhi
0.0 10.75440569135805 zlo zhi

Masses

1 18.998403163    # F
2 6.938           # Li
3 22.989769       # Na

Atoms # 

1 1 1.743 24.736 10.011
2 1 5.092 -13.932 4.905
3 1 16.275 14.224 20.372
4 1 3.509 8.682 19.154
5 1 10.212 11.276 3.71 
6 1 -8.01 8.812 3.603
7 1 -3.328 12.416 3.369
8 1 19.075 3.816 11.074
9 1 0.584 0.077 11.489
10 1 11.051 7.849 13.951
11 1 30.07 16.882 9.134
12 1 -6.764 11.322 10.233
13 1 7.287 12.238 10.766
14 1 1.705 8.273 11.576
15 1 -10.067 -1.393 27.807
16 1 -1.613 6.901 17.076
17 1 18.853 3.702 -2.919
18 1 -8.059 11.708 3.146
19 1 12.64 6.98 26.772
20 1 14.707 -7.893 0.981
21 1 7.117 -1.406 6.166
22 1 4.165 2.515 5.24 
23 1 10.385 12.527 8.747
24 1 1.301 21.164 -2.01 
25 1 4.546 -13.706 -8.868
26 1 11.642 -5.045 18.624
27 1 6.056 -4.432 18.558
28 1 17.273 27.277 -10.038
29 1 6.295 9.051 -0.464
30 1 3.202 9.978 6.014
31 1 -16.11 -0.493 3.849
32 1 24.964 4.487 7.503
33 1 2.527 12.616 7.816
34 1 -10.728 -2.76 19.791
35 1 9.318 8.152 11.379
36 1 17.311 -6.458 -5.151
37 1 3.88 16.854 10.006
38 1 -5.432 11.715 7.856
39 1 -2.192 1.418 -4.637
40 1 11.109 6.118 10.969
41 1 -2.475 10.25 1.745
42 1 5.689 -6.45 -8.146
43 1 2.097 3.853 4.851
44 1 -2.213 -1.055 -2.506
45 1 22.28 1.348 -15.735
46 1 12.66 -5.535 -8.227
47 1 -3.862 -2.507 2.755
48 1 20.231 3.884 4.931
49 1 9.404 5.463 2.607
50 1 -9.786 24.331 2.904
51 2 26.152 -5.368 19.158
52 2 11.433 4.517 11.483
53 2 7.726 16.383 18.427
54 2 3.486 8.397 -16.223
55 2 20.845 1.008 -3.769
56 2 8.275 3.199 6.022
57 2 3.464 32.024 -2.074
58 2 6.937 -0.733 -2.835
59 2 16.619 7.82 6.559
60 2 -10.59 -13.203 0.072
61 2 -6.906 13.904 -22.321
62 2 5.674 3.056 3.801
63 2 8.251 2.803 9.672
64 2 4.207 -1.477 -7.877
65 2 11.447 36.851 14.221
66 2 4.08 1.111 12.062
67 2 -10.181 -2.796 -5.695
68 2 22.912 8.99 -2.667
69 2 -20.097 16.155 5.921
70 2 9.671 -1.928 -3.787
71 2 16.641 -3.879 23.912
72 2 5.759 1.321 -1.17 
73 2 2.642 13.33 3.834
74 2 8.496 5.684 0.472
75 2 -8.822 -14.237 2.543
76 2 -3.352 19.803 11.54 
77 2 -18.923 10.479 -6.154
78 2 12.058 12.045 -12.327
79 2 11.685 3.757 19.357
80 2 0.966 -9.839 12.991
81 2 12.567 -10.457 -3.98 
82 2 17.328 6.462 9.762
83 2 16.902 14.69 11.498
84 2 8.735 0.73 4.553
85 2 9.936 -4.049 8.382
86 2 -3.25 -9.687 1.744
87 2 -7.638 -18.684 -4.168
88 2 -3.924 -1.4 4.024
89 2 10.324 17.538 12.51 
90 2 -0.087 -19.376 -6.169
91 3 16.431 3.225 17.957
92 3 1.835 -4.064 9.813
93 3 -17.61 -5.143 -5.404
94 3 4.106 16.167 1.359
95 3 15.118 -13.005 -32.473
96 3 -13.251 3.806 13.26 
97 3 5.078 11.018 16.52 
98 3 10.479 9.85 -8.308
99 3 -2.466 5.906 -6.234
100 3 -1.465 -10.907 10.133