LAMMPS (29 Sep 2021 - Update 2)
OMP_NUM_THREADS environment is not set. Defaulting to 1 thread. (src/comm.cpp:98)
  using 1 OpenMP thread(s) per MPI task
Reading data file ...
  orthogonal box = (0.0000000 0.0000000 0.0000000) to (10.754406 10.754406 10.754406)
  1 by 1 by 1 MPI processor grid
WARNING: Atom style in data file differs from currently defined atom style (src/read_data.cpp:516)
  reading atoms ...
  100 atoms
  read_data CPU = 0.001 seconds
NEQUIP is using device cuda
NequIP Coeff: type 1 is element F
NequIP Coeff: type 2 is element Li
NequIP Coeff: type 3 is element Na
Loading model from FLiNa_f_pyt10.2
Freezing TorchScript model...
Replicating atoms ...
  orthogonal box = (0.0000000 0.0000000 0.0000000) to (21.508811 32.263217 43.017623)
  1 by 1 by 1 MPI processor grid
  2400 atoms
  replicate CPU = 0.001 seconds
Neighbor list info ...
  update every 1 steps, delay 10 steps, check yes
  max neighbors/atom: 2000, page size: 100000
  master list distance cutoff = 7
  ghost atom cutoff = 7
  binsize = 3.5, bins = 7 10 13
  1 neighbor lists, perpetual/occasional/extra = 1 0 0
  (1) pair nequip, perpetual
      attributes: full, newton off
      pair build: full/bin/atomonly
      stencil: full/bin/3d
      bin: standard
Setting up Verlet run ...
  Unit style    : metal
  Current step  : 0
  Time step     : 0.001
Per MPI rank memory allocation (min/avg/max) = 3.996 | 3.996 | 3.996 Mbytes
Step Temp E_pair E_mol TotEng Press 
       0         1100   -11025.062            0   -10683.958    12204.955 
     100    1069.7212   -11005.319            0   -10673.604    11868.999 
     200     1073.231   -10999.054            0    -10666.25    11907.942 
     300    1069.7032   -10993.544            0   -10661.834      11868.8 
     400    1092.7049   -10998.688            0   -10659.846    12124.012 
     500    1113.2775   -11002.462            0    -10657.24    12352.275 
     600    1114.7572   -11003.016            0   -10657.335    12368.692 
     700    1121.2885   -11013.517            0   -10665.811     12441.16 
     800    1081.4988   -11006.482            0   -10671.115    11999.677 
     900    1090.0985    -11000.93            0   -10662.896    12095.093 
    1000    1122.5338   -10999.761            0   -10651.669    12454.977 
    1100    1099.9912   -10994.864            0   -10653.762    12204.857 
    1200    1102.1659   -11001.929            0   -10660.152    12228.987 
    1300    1101.0503   -11007.183            0   -10665.752    12216.608 
    1400     1111.673   -11009.765            0    -10665.04    12334.472 
    1500    1080.2695   -10999.335            0   -10664.349    11986.037 
    1600    1089.4393   -10996.718            0   -10658.888    12087.779 
    1700    1085.9906   -10995.042            0   -10658.282    12049.515 
    1800    1114.5894   -11003.202            0   -10657.573    12366.831 
    1900    1115.8446   -11003.567            0   -10657.549    12380.757 
    2000    1098.1245   -11009.656            0   -10669.133    12184.146 
    2100    1063.0581   -11004.378            0   -10674.729    11795.069 
    2200    1077.8367   -11000.993            0   -10666.761    11959.044 
    2300    1096.9914   -11001.694            0   -10661.523    12171.574 
    2400    1117.9347   -11005.307            0   -10658.641    12403.948 
    2500    1097.4198   -10996.965            0    -10656.66    12176.327 
    2600    1114.4176   -10996.812            0   -10651.236    12364.924 
    2700    1138.4638   -11001.454            0   -10648.422    12631.727 
    2800    1114.7609   -11007.953            0   -10662.271    12368.734 
    2900    1082.2913    -11006.17            0   -10670.557     12008.47 
    3000    1092.1142   -11007.219            0   -10668.559    12117.459 
    3100     1118.261   -11005.033            0   -10658.266    12407.568 
    3200    1108.1809   -10994.681            0   -10651.039    12295.726 
    3300    1107.6336   -10998.003            0   -10654.531    12289.653 
    3400    1089.4974   -10995.341            0   -10657.493    12088.424 
    3500    1085.7741   -10993.818            0   -10657.125    12047.113 
    3600     1115.969   -11003.389            0   -10657.332    12382.138 
    3700    1097.3521   -10993.015            0   -10652.731    12175.576 
    3800    1122.8019   -10991.585            0    -10643.41    12457.951 
    3900    1141.8697   -11000.841            0   -10646.753    12669.516 
    4000    1087.4151   -10998.627            0   -10661.425     12065.32 
    4100    1104.0532   -11007.066            0   -10664.705    12249.927 
    4200    1074.4149   -10997.989            0   -10664.818    11921.078 
    4300    1097.5528   -10995.267            0   -10654.921    12177.802 
    4400    1120.9657   -10993.696            0    -10646.09    12437.578 
    4500    1106.3587   -10987.479            0   -10644.403    12275.508 
    4600    1122.6103   -10996.563            0   -10648.448    12455.826 
    4700    1103.8751     -10997.8            0   -10655.494     12247.95 
    4800    1098.5872   -10999.337            0    -10658.67     12189.28 
    4900    1108.2278   -11002.421            0   -10658.765    12296.245 
    5000    1117.1075   -11004.478            0   -10658.068    12394.769 
    5100    1096.8964   -10999.413            0   -10659.271     12170.52 
    5200     1086.603   -11002.208            0   -10665.258    12056.309 
    5300    1078.5756   -11001.092            0   -10666.631    11967.242 
    5400    1100.8836   -11002.645            0   -10661.266    12214.759 
    5500    1127.9903   -11003.062            0   -10653.278    12515.519 
    5600    1123.4196   -11002.218            0   -10653.851    12464.805 
    5700    1087.4109   -11006.193            0   -10668.993    12065.273 
    5800    1096.6051   -11011.367            0   -10671.315    12167.287 
    5900    1099.7216   -11010.326            0   -10669.308    12201.866 
    6000    1112.6047   -11004.433            0   -10659.419    12344.809 
    6100    1108.0363   -10990.334            0   -10646.737    12294.121 
    6200      1109.52   -10991.433            0   -10647.376    12310.583 
    6300    1094.7526   -10994.536            0   -10655.059    12146.733 
    6400    1098.4443   -11001.859            0   -10661.237    12187.694 
    6500    1117.4711   -11007.206            0   -10660.684    12398.804 
    6600    1085.9526   -10997.004            0   -10660.255    12049.093 
    6700    1080.8488   -10993.267            0   -10658.101    11992.464 
    6800    1089.6966   -10993.234            0   -10655.325    12090.634 
    6900    1106.3805   -10999.421            0   -10656.338    12275.749 
    7000    1109.6952   -11002.201            0    -10658.09    12312.527 
    7100    1075.4545    -10991.99            0   -10658.497    11932.613 
    7200     1115.605   -11004.036            0   -10658.092    12378.099 
    7300    1079.9303   -10999.344            0   -10664.463    11982.274 
    7400    1108.2457   -11013.102            0    -10669.44    12296.445 
    7500     1066.109   -11001.863            0   -10671.268    11828.921 
    7600    1089.7005   -11001.804            0   -10663.893    12090.678 
    7700    1092.7853   -10991.158            0   -10652.291    12124.905 
    7800    1120.8089   -10998.169            0   -10650.612    12435.838 
    7900    1107.7039   -11004.134            0    -10660.64    12290.433 
    8000    1100.2919   -11010.945            0    -10669.75    12208.193 
    8100    1119.2995   -11012.557            0   -10665.467    12419.091 
    8200    1127.2241   -11012.444            0   -10662.898    12507.018 
    8300    1081.4224   -11003.126            0   -10667.782    11998.829 
    8400    1075.1097    -11008.26            0   -10674.874    11928.786 
    8500    1061.1132   -11004.437            0   -10675.391     11773.49 
    8600    1099.5235   -11001.448            0   -10660.491    12199.668 
    8700    1109.6491   -11000.478            0   -10656.381    12312.016 
    8800    1089.0316   -10997.574            0   -10659.871    12083.256 
    8900    1101.2278   -11005.636            0    -10664.15    12218.577 
    9000    1069.7804   -10999.361            0   -10667.628    11869.657 
    9100    1101.3369   -10999.547            0   -10658.028    12219.788 
    9200    1115.0099   -10998.934            0   -10653.175    12371.496 
    9300    1105.3111   -10998.688            0   -10655.937    12263.884 
    9400    1085.7601   -11002.938            0    -10666.25    12046.958 
    9500    1060.6356   -11000.841            0   -10671.943     11768.19 
    9600    1120.0301   -11009.442            0   -10662.127    12427.198 
    9700    1113.5859   -11000.582            0   -10655.265    12355.696 
    9800    1104.5719   -10999.225            0   -10656.702    12255.682 
    9900    1106.8004   -11001.268            0   -10658.054    12280.408 
   10000    1092.1942    -11003.37            0   -10664.686    12118.347 
   10100    1110.4069   -11009.751            0   -10665.419    12320.424 
   10200     1090.337   -10999.228            0   -10661.119    12097.741 
   10300    1140.3144   -11006.578            0   -10652.972     12652.26 
   10400    1096.2088   -10992.883            0   -10652.954     12162.89 
   10500    1118.4809   -11009.348            0   -10662.512    12410.008 
   10600       1062.1   -10998.041            0   -10668.689    11784.439 
   10700    1092.5554   -11001.498            0   -10662.702    12122.354 
   10800     1103.425   -10998.611            0   -10656.445    12242.957 
   10900    1086.9048   -10994.271            0   -10657.227    12059.658 
   11000    1084.4026   -10998.227            0   -10661.959    12031.895 
   11100     1109.102   -11005.905            0   -10661.978    12305.946 
   11200    1108.4211   -11002.113            0   -10658.397    12298.391 
   11300    1138.7303   -11002.884            0   -10649.769    12634.684 
   11400    1114.0135   -11000.771            0   -10655.321     12360.44 
   11500    1082.4084    -11002.67            0    -10667.02    12009.769 
   11600    1091.2055   -11003.691            0   -10665.314    12107.377 
   11700    1072.4883   -10993.401            0   -10660.828    11899.701 
   11800    1123.5747   -11002.538            0   -10654.123    12466.525 
   11900    1100.9844   -10998.805            0   -10657.395    12215.877 
   12000    1063.0181   -11005.531            0   -10675.895    11794.625 
   12100    1073.0509    -11009.57            0   -10676.822    11905.944 
   12200     1099.493   -11007.527            0    -10666.58     12199.33 
   12300    1107.6413   -11002.061            0   -10658.586    12289.739 
   12400    1106.9577   -10999.679            0   -10656.417    12282.154 
   12500    1106.5314    -10997.16            0    -10654.03    12277.423 
   12600     1114.896   -11000.912            0   -10655.188    12370.232 
   12700    1109.7029   -11007.019            0   -10662.905    12312.613 
   12800    1088.5706   -11010.766            0   -10673.205    12078.142 
   12900     1085.143   -11011.779            0   -10675.282     12040.11 
   13000    1115.7044   -11011.315            0   -10665.341    12379.202 
   13100    1112.4896   -11002.123            0   -10657.145    12343.532 
   13200    1112.3631   -11000.425            0   -10655.486    12342.129 
   13300    1124.5319    -11003.64            0   -10654.928    12477.147 
   13400    1126.6332   -11010.373            0    -10661.01    12500.462 
   13500    1087.4461   -11010.834            0   -10673.622    12065.665 
   13600    1102.7306   -11013.963            0   -10672.012    12235.252 
   13700    1090.2507   -11004.488            0   -10666.407    12096.783 
   13800    1109.8237   -11002.882            0   -10658.731    12313.953 
   13900    1110.9633   -11000.689            0   -10656.185    12326.597 
   14000    1107.1937   -11003.416            0   -10660.081    12284.772 
   14100    1087.7609   -11002.019            0   -10664.709    12069.157 
   14200    1081.9908   -11008.773            0   -10673.253    12005.136 
   14300    1079.7931   -11016.424            0   -10681.585    11980.751 
   14400      1049.96    -10996.22            0   -10670.632    11649.741 
   14500    1100.5648   -11000.283            0   -10659.003    12211.221 
   14600    1099.3975   -10994.746            0   -10653.828     12198.27 
   14700    1114.5541   -10994.789            0   -10649.171    12366.439 
   14800    1124.2567   -10994.273            0   -10645.647    12474.093 
   14900    1119.4347   -10989.506            0   -10642.375    12420.591 
   15000    1132.1293   -11000.829            0   -10649.761    12561.443 
   15100    1079.7803   -10998.481            0   -10663.647    11980.609 
   15200    1102.2304   -11008.002            0   -10666.206    12229.702 
   15300    1074.1966   -10996.578            0   -10663.475    11918.655 
   15400    1126.6181   -10999.889            0    -10650.53    12500.294 
   15500     1118.777   -10995.869            0   -10648.942    12413.293 
   15600    1098.2473   -10994.063            0   -10653.502    12185.508 
   15700    1099.0561   -10999.161            0   -10658.349    12194.482 
   15800    1081.9775   -10996.733            0   -10661.218    12004.988 
   15900    1085.5627   -10997.147            0    -10660.52    12044.768 
   16000    1093.8251   -10998.954            0   -10659.764    12136.442 
   16100    1084.7956    -10995.75            0    -10659.36    12036.255 
   16200    1111.3182   -10999.085            0   -10654.471    12330.535 
   16300     1112.587   -10996.658            0    -10651.65    12344.613 
   16400    1111.4357   -11003.659            0   -10659.008    12331.839 
   16500    1083.9589   -11003.679            0   -10667.548    12026.973 
   16600     1093.503   -11004.832            0   -10665.742    12132.869 
   16700     1099.974   -10994.076            0    -10652.98    12204.666 
   16800    1110.9431    -10988.48            0   -10643.982    12326.374 
   16900    1120.0646   -10996.737            0   -10649.411     12427.58 
   17000    1121.2939   -11003.366            0   -10655.658     12441.22 
   17100    1067.9154   -10993.926            0    -10662.77    11848.963 
   17200    1114.3198   -11007.328            0   -10661.783    12363.839 
   17300    1105.8203   -11003.732            0   -10660.823    12269.533 
   17400    1108.7504   -11003.599            0   -10659.781    12302.044 
   17500    1109.2346   -11005.166            0   -10661.198    12307.417 
   17600    1104.5195   -11007.024            0   -10664.518    12255.101 
   17700    1083.0702   -11008.644            0   -10672.789    12017.111 
   17800      1075.48   -11007.141            0    -10673.64    11932.895 
   17900     1104.166   -11006.357            0   -10663.961    12251.178 
   18000    1129.5565   -11004.988            0   -10654.718    12532.897 
   18100    1094.9201   -10996.199            0    -10656.67    12148.591 
   18200    1095.6676   -10998.753            0   -10658.992    12156.885 
   18300    1069.7857   -11000.163            0   -10668.428    11869.715 
   18400    1085.2501   -11016.749            0   -10680.218    12041.298 
   18500     1086.483   -11011.499            0   -10674.586    12054.978 
   18600    1100.8957   -11003.829            0   -10662.447    12214.893 
   18700    1114.0234   -11004.525            0   -10659.072    12360.551 
   18800    1111.6818   -11004.398            0   -10659.671    12334.569 
   18900    1098.6112   -11001.023            0   -10660.349    12189.546 
   19000    1097.2439   -10999.821            0   -10659.571    12174.375 
   19100    1096.6203    -10998.27            0   -10658.213    12167.456 
   19200    1103.7896   -10997.135            0   -10654.855    12247.002 
   19300    1102.4194   -10992.625            0    -10650.77    12231.799 
   19400    1093.7123   -10988.259            0   -10649.104     12135.19 
   19500    1109.5656   -11001.978            0   -10657.907     12311.09 
   19600    1090.0614   -11007.814            0   -10669.792    12094.682 
   19700    1083.8005    -11006.87            0   -10670.789    12025.215 
   19800    1113.7755   -11010.217            0    -10664.84      12357.8 
   19900    1122.0349   -11005.011            0   -10657.073    12449.441 
   20000    1142.2904   -10998.049            0    -10643.83    12674.184 
   20100    1094.5086    -10991.43            0   -10652.028    12144.026 
   20200    1098.6392   -11000.191            0   -10659.509    12189.856 
   20300    1072.9244   -10993.695            0   -10660.987    11904.541 
   20400    1078.5535   -10995.146            0   -10660.691    11966.997 
   20500    1107.6687   -10993.479            0   -10649.996    12290.043 
   20600     1114.237   -10987.558            0   -10642.038     12362.92 
   20700    1085.6582   -10985.726            0   -10649.068    12045.826 
   20800    1079.6485   -10997.475            0   -10662.681    11979.146 
   20900    1098.6128   -11000.469            0   -10659.794    12189.563 
   21000    1092.7016   -10991.396            0   -10652.554    12123.976 
   21100    1133.9668     -11000.6            0   -10648.962    12581.831 
   21200    1089.1347   -10999.342            0   -10661.606      12084.4 
   21300    1090.7004   -11008.424            0   -10670.203    12101.772 
   21400    1065.1009    -10998.68            0   -10668.397    11817.735 
   21500    1109.8326   -11002.327            0   -10658.174    12314.052 
   21600    1094.3433   -10994.776            0   -10655.426    12142.191 
   21700     1093.979    -10996.69            0   -10657.453    12138.149 
   21800     1076.499    -10998.41            0   -10664.593    11944.202 
   21900    1065.5129   -11005.981            0   -10675.571    11822.306 
   22000    1057.7876   -11007.747            0   -10679.732    11736.591 
   22100    1108.3996   -11008.132            0   -10664.423    12298.152 
   22200    1089.7074   -10998.604            0   -10660.692    12090.754 
   22300    1108.8792    -11003.39            0   -10659.532    12303.473 
   22400    1083.3776   -11004.611            0   -10668.661    12020.522 
   22500    1081.9621   -11008.792            0   -10673.281    12004.817 
   22600    1080.5706   -10998.869            0    -10663.79    11989.378 
   22700    1116.4124   -10996.984            0    -10650.79    12387.057 
   22800    1104.7554   -10996.809            0   -10654.229    12257.718 
   22900    1091.0151   -10998.711            0   -10660.393    12105.264 
   23000    1112.5869   -11010.572            0   -10665.565    12344.612 
   23100    1096.6414   -11003.602            0   -10663.538     12167.69 
   23200     1126.808   -11000.241            0   -10650.824    12502.401 
   23300    1114.6248   -10993.587            0   -10647.947    12367.223 
   23400    1078.3273   -10985.175            0   -10650.791    11964.487 
   23500    1119.8423   -11004.845            0   -10657.587    12425.113 
   23600     1083.811   -11005.595            0    -10669.51    12025.331 
   23700    1060.8587   -10998.425            0   -10669.458    11770.666 
   23800    1089.9306    -10996.65            0   -10658.668    12093.231 
   23900    1089.3132   -10992.097            0   -10654.306    12086.381 
   24000    1138.8468   -11005.458            0   -10652.307    12635.976 
   24100    1105.8752   -10999.377            0    -10656.45    12270.143 
   24200    1097.9253   -11003.938            0   -10663.476    12181.935 
   24300    1070.9713   -11007.361            0   -10675.258     11882.87 
   24400     1061.785   -11012.806            0   -10683.551    11780.944 
   24500    1066.3916   -11014.735            0   -10684.053    11832.056 
   24600    1078.5569   -11002.249            0   -10667.794    11967.034 
   24700    1105.4564   -11001.042            0   -10658.245    12265.496 
   24800    1106.4155   -10994.312            0   -10651.217    12276.138 
   24900    1113.2329   -10992.431            0   -10647.223     12351.78 
   25000    1105.6495   -10997.614            0   -10654.758    12267.638 
   25100    1090.4307   -11006.051            0   -10667.914     12098.78 
   25200    1093.2933   -11005.778            0   -10666.753    12130.541 
   25300    1093.3558   -10997.168            0   -10658.124    12131.235 
   25400    1116.9949   -10998.932            0   -10652.557    12393.521 
   25500     1108.165   -10995.463            0   -10651.826    12295.549 
   25600    1109.5382   -10998.641            0   -10654.578    12310.785 
   25700    1093.6746   -10997.532            0   -10658.389    12134.772 
   25800    1095.1863   -11004.041            0   -10664.429    12151.545 
   25900    1059.1352   -10997.503            0    -10669.07    11751.543 
   26000    1108.5344   -11002.325            0   -10658.574    12299.648 
   26100    1126.4785    -10999.46            0   -10650.145    12498.745 
   26200    1095.9067   -10994.604            0   -10654.769    12159.538 
   26300    1092.4996   -11000.854            0   -10662.076    12121.735 
   26400    1070.7148   -10996.215            0   -10664.191    11880.024 
   26500    1087.8479   -10995.466            0    -10658.13    12070.122 
   26600    1106.7968   -10984.563            0   -10641.351    12280.368 
   26700    1134.7568    -10985.54            0   -10633.658    12590.596 
   26800    1116.5488   -10991.366            0    -10645.13    12388.571 
   26900    1112.8092   -11002.438            0   -10657.361    12347.078 
   27000    1083.5524   -11001.054            0   -10665.049    12022.462 
   27100    1078.2245   -10999.486            0   -10665.134    11963.347 
   27200    1088.4382   -10995.604            0   -10658.085    12076.672 
   27300    1113.1561   -10990.645            0    -10645.46    12350.927 
   27400    1121.1265    -10998.01            0   -10650.354    12439.362 
   27500    1101.1989   -10998.692            0   -10657.216    12218.258 
   27600    1079.3979   -10991.707            0   -10656.991    11976.367 
   27700    1120.7566   -11000.285            0   -10652.744    12435.258 
   27800    1103.2342   -10997.324            0   -10655.217     12240.84 
   27900    1062.0876   -11000.017            0   -10670.668    11784.302 
   28000    1077.9132   -11005.677            0   -10671.421    11959.893 
   28100    1102.1004   -11003.658            0   -10661.902    12228.259 
   28200    1112.6375   -11002.483            0    -10657.46    12345.174 
   28300    1108.7579   -11003.779            0   -10659.959    12302.127 
   28400     1083.973   -10997.848            0   -10661.713    12027.129 
   28500    1079.3545   -10992.045            0   -10657.342    11975.885 
   28600    1095.7634   -10989.335            0   -10649.544    12157.949 
   28700    1104.5567   -10989.146            0   -10646.628    12255.513 
   28800    1136.2539   -11007.004            0   -10654.657    12607.207 
   28900    1110.6887   -11009.547            0   -10665.128    12323.551 
   29000    1078.9286   -10999.796            0   -10665.225    11971.159 
   29100    1124.0554    -11007.57            0   -10659.006    12471.859 
   29200    1110.5053    -10997.43            0   -10653.067    12321.515 
   29300    1112.1618   -10991.293            0   -10646.417    12339.895 
   29400    1137.4831   -11006.059            0   -10653.331    12620.845 
   29500    1105.4267    -11006.94            0   -10664.153    12265.167 
   29600    1085.6824   -11003.402            0   -10666.738    12046.095 
   29700    1111.4792   -11006.338            0   -10661.674    12332.321 
   29800    1107.0635   -10992.567            0   -10649.272    12283.328 
   29900    1123.0901   -10988.136            0   -10639.871    12461.149 
   30000     1088.144   -10986.321            0   -10648.893    12073.408 
   30100    1108.1717   -10996.102            0   -10652.463    12295.623 
   30200    1115.1732   -11003.831            0   -10658.021    12373.308 
   30300    1074.3425   -10999.187            0   -10666.038    11920.274 
   30400     1072.179   -10999.235            0   -10666.758     11896.27 
   30500    1084.1081   -10988.215            0   -10652.038    12028.628 
   30600    1149.0227   -11004.543            0   -10648.237    12748.882 
   30700    1094.8827   -10994.725            0   -10655.207    12148.176 
   30800    1100.5048   -11004.424            0   -10663.163    12210.556 
   30900    1097.4429   -11003.725            0   -10663.413    12176.583 
   31000    1109.2299   -11002.619            0   -10658.652    12307.365 
   31100    1129.9592   -10991.449            0   -10641.054    12537.365 
   31200    1131.2409   -10995.263            0    -10644.47    12551.586 
   31300    1125.0857   -11002.387            0   -10653.503    12483.291 
   31400    1078.4525   -10996.301            0   -10661.878    11965.876 
   31500    1081.4789   -10996.233            0   -10660.872    11999.456 
   31600    1105.0673   -10997.035            0   -10654.359    12261.179 
   31700    1110.3915   -10991.367            0    -10647.04    12320.252 
   31800    1118.0694   -10995.196            0   -10648.488    12405.442 
   31900    1124.6948   -11002.348            0   -10653.585    12478.954 
   32000    1070.6094   -10993.116            0   -10661.126    11878.854 
   32100     1095.478   -11001.852            0   -10662.149    12154.782 
   32200    1090.9664    -11001.14            0   -10662.836    12104.724 
   32300    1111.5181   -11007.622            0   -10662.946    12332.753 
   32400    1093.9293     -10999.2            0   -10659.978    12137.598 
   32500     1115.747   -10998.014            0   -10652.026    12379.674 
   32600    1117.6403   -10997.292            0   -10650.717    12400.681 
   32700    1124.3729   -11011.818            0   -10663.156    12475.382 
   32800    1091.0272   -11008.946            0   -10670.624    12105.398 
   32900    1101.2485   -11009.787            0   -10668.295    12218.808 
   33000    1100.3748   -11003.405            0   -10662.184    12209.113 
   33100    1110.7699   -11004.432            0   -10659.987    12324.451 
   33200    1094.1153   -10999.626            0   -10660.346    12139.662 
   33300    1092.8791   -11001.373            0   -10662.477    12125.946 
   33400    1088.5646    -11004.29            0   -10666.732    12078.074 
   33500    1063.9303   -11001.332            0   -10671.412    11804.746 
   33600    1096.0073   -11001.208            0   -10661.342    12160.654 
   33700    1103.9608   -10996.993            0    -10654.66    12248.902 
   33800     1079.744   -10992.889            0   -10658.065    11980.206 
   33900    1105.4541   -11004.443            0   -10661.647    12265.471 
   34000     1082.898   -11008.367            0   -10672.566    12015.201 
   34100    1051.5322    -10999.97            0   -10673.895    11667.185 
   34200    1090.4723   -10997.673            0   -10659.523    12099.241 
   34300    1116.2145   -11001.141            0   -10655.008    12384.861 
   34400     1120.711   -11001.586            0   -10654.059    12434.752 
   34500    1072.1228   -10992.684            0   -10660.224    11895.646 
   34600    1091.2593   -10996.161            0   -10657.767    12107.973 
   34700    1103.0269   -10986.535            0   -10644.492     12238.54 
   34800    1121.3511   -10989.518            0   -10641.792    12441.854 
   34900    1106.0017   -10990.312            0   -10647.346    12271.547 
   35000     1079.668   -10995.625            0   -10660.825    11979.363 
   35100    1089.6449   -11005.911            0   -10668.018    12090.061 
   35200    1107.9247   -11010.311            0   -10666.749    12292.882 
   35300    1110.2156   -11007.078            0   -10662.806    12318.301 
   35400    1121.1859   -11002.142            0   -10654.467    12440.022 
   35500    1117.7493   -10994.557            0   -10647.948    12401.891 
   35600    1116.7432   -11000.791            0   -10654.494    12390.728 
   35700    1092.8771   -11006.809            0   -10667.913    12125.923 
   35800    1093.5575   -11003.727            0    -10664.62    12133.473 
   35900    1110.9312   -10998.483            0   -10653.989    12326.241 
   36000    1127.9271   -11000.152            0   -10650.388    12514.818 
   36100    1100.6355   -10995.368            0   -10654.066    12212.007 
   36200    1074.3989   -10996.805            0   -10663.639      11920.9 
   36300    1095.6619   -11005.612            0   -10665.853    12156.822 
   36400     1125.306   -11000.019            0   -10651.067    12485.736 
   36500     1154.871   -11007.599            0   -10649.479    12813.771 
   36600     1120.933   -11009.024            0   -10661.429    12437.215 
   36700    1096.1173   -11008.545            0   -10668.644    12161.875 
   36800    1086.5113   -11003.123            0   -10666.201    12055.293 
   36900    1103.4418   -11000.518            0   -10658.346    12243.143 
   37000    1119.8787   -10991.852            0   -10644.583    12425.517 
   37100    1127.5532   -10996.814            0   -10647.166    12510.669 
   37200    1121.6284   -11002.149            0   -10654.338    12444.931 
   37300    1075.3501   -10993.896            0   -10660.436    11931.454 
   37400    1082.3967   -10997.463            0   -10661.817    12009.639 
   37500    1113.1985   -11004.754            0   -10659.557    12351.398 
   37600    1113.0429   -10993.835            0   -10648.686    12349.672 
   37700     1104.193   -10989.766            0   -10647.361    12251.478 
   37800    1095.8988   -10999.218            0   -10659.385    12159.451 
   37900     1090.171   -11003.273            0   -10665.217    12095.898 
   38000    1098.0018   -11006.901            0   -10666.416    12182.784 
   38100    1101.3874    -11006.94            0   -10665.406    12220.349 
   38200     1104.992   -11004.121            0   -10661.468    12260.344 
   38300    1107.6319   -11000.108            0   -10656.637    12289.634 
   38400    1135.4575   -11006.719            0   -10654.619    12598.371 
   38500    1078.0548   -10999.224            0   -10664.924    11961.464 
   38600    1084.1061   -11005.909            0   -10669.733    12028.606 
   38700    1094.0094   -11002.476            0   -10663.229    12138.487 
   38800     1113.265   -10994.571            0   -10649.353    12352.135 
   38900    1103.4842   -10994.261            0   -10652.076    12243.614 
   39000    1080.9937    -10995.68            0   -10660.469    11994.072 
   39100    1108.3104   -11007.993            0   -10664.312    12297.163 
   39200    1100.6137   -11003.306            0   -10662.011    12211.764 
   39300    1109.3735   -10990.229            0   -10646.217    12308.957 
   39400    1148.9794   -11001.521            0   -10645.229    12748.402 
   39500    1124.7651   -11004.551            0   -10655.767    12479.734 
   39600    1080.1852   -10994.567            0   -10659.607    11985.101 
   39700    1091.9066   -10994.098            0   -10655.503    12115.155 
   39800    1123.7504   -11002.219            0   -10653.749    12468.476 
   39900    1077.0391   -11003.069            0   -10669.085    11950.194 
   40000     1078.102   -11006.662            0   -10672.348    11961.987 
   40100    1101.1279   -11006.337            0   -10664.883    12217.469 
   40200    1086.2591   -10996.287            0   -10659.443    12052.494 
   40300     1113.159    -10999.56            0   -10654.374    12350.959 
   40400    1125.0854   -11000.559            0   -10651.675    12483.288 
   40500    1083.5236    -10991.32            0   -10655.325    12022.142 
   40600    1107.5953   -11008.052            0   -10664.592    12289.228 
   40700    1081.8625   -11008.203            0   -10672.723    12003.712 
   40800    1091.8936   -11007.949            0   -10669.358    12115.011 
   40900    1124.5605   -11007.031            0   -10658.311    12477.464 
   41000    1117.1098   -10997.271            0   -10650.861    12394.795 
   41100    1102.7398   -10994.266            0   -10652.311    12235.354 
   41200    1098.6026   -10993.673            0   -10653.002     12189.45 
   41300    1101.5117   -10995.013            0   -10653.439    12221.728 
   41400     1092.396   -10997.906            0    -10659.16    12120.586 
   41500    1075.7949   -11006.493            0   -10672.894    11936.389 
   41600    1066.3439   -11002.708            0    -10672.04    11831.527 
   41700    1104.6499   -11004.082            0   -10661.536    12256.548 
   41800    1089.8102   -10994.087            0   -10656.142    12091.895 
   41900    1117.5693   -11000.445            0   -10653.893    12399.894 
   42000    1106.3156   -10996.928            0   -10653.865    12275.029 
   42100    1106.8371   -11006.741            0   -10663.516    12280.816 
   42200    1067.8429   -11001.387            0   -10670.254    11848.159 
   42300    1123.3747   -11010.938            0   -10662.585    12464.307 
   42400    1124.8098   -11010.211            0   -10661.413     12480.23 
   42500    1084.3683   -11001.038            0   -10664.781    12031.515 
   42600    1097.8343   -11003.401            0   -10662.968    12180.926 
   42700    1107.3246   -11000.542            0   -10657.166    12286.225 
   42800    1103.9565   -10981.416            0   -10639.085    12248.854 
   42900    1133.9395   -10990.466            0   -10638.837    12581.528 
   43000    1078.4268   -10985.083            0   -10650.668    11965.592 
   43100    1091.7295   -10993.637            0   -10655.097    12113.191 
   43200    1089.8327   -10992.542            0    -10654.59    12092.145 
   43300    1096.0468   -10985.289            0    -10645.41    12161.093 
   43400    1148.0011   -10991.578            0   -10635.589    12737.547 
   43500    1112.5336   -10992.075            0   -10647.084    12344.021 
   43600    1131.1874   -11004.692            0   -10653.917    12550.992 
   43700    1088.2914   -11000.606            0   -10663.133    12075.043 
   43800    1084.8805   -11001.607            0   -10665.191    12037.198 
   43900    1101.7749   -10999.958            0   -10658.303    12224.648 
   44000    1135.2216   -10995.537            0    -10643.51    12595.753 
   44100    1126.5057    -10995.08            0   -10645.756    12499.046 
   44200    1127.2534   -11002.062            0   -10652.506    12507.343 
   44300    1073.6772   -10993.092            0    -10660.15    11912.893 
   44400    1120.5139   -11005.635            0   -10658.169    12432.566 
   44500    1097.4179   -10998.116            0   -10657.812    12176.306 
   44600    1083.9281   -10989.534            0   -10653.413     12026.63 
   44700    1092.2387   -10986.592            0   -10647.894     12118.84 
   44800    1108.0071   -10990.307            0   -10646.719    12293.798 
   44900    1098.8965   -10998.484            0   -10657.722    12192.711 
   45000    1086.2833   -11001.168            0   -10664.317    12052.763 
   45100    1099.1464   -11003.027            0   -10662.187    12195.484 
   45200    1140.0373   -11008.587            0   -10655.067    12649.185 
   45300    1112.9619   -10990.922            0   -10645.798    12348.772 
   45400    1143.5922   -10993.155            0   -10638.533    12688.629 
   45500    1102.7061   -10991.984            0   -10650.041     12234.98 
   45600    1078.9163   -10993.591            0   -10659.024    11971.022 
   45700    1084.9105   -10992.129            0   -10655.704     12037.53 
   45800    1094.9225   -10993.878            0   -10654.348    12148.618 
   45900    1126.6561   -11003.815            0   -10654.445    12500.715 
   46000    1088.5936    -10995.49            0   -10657.923    12078.397 
   46100    1078.8704    -10996.71            0   -10662.158    11970.513 
   46200    1120.8089   -11004.763            0   -10657.205    12435.838 
   46300     1141.092   -11003.736            0   -10649.889    12660.888 
   46400    1098.0952   -10999.889            0   -10659.375     12183.82 
   46500     1067.175   -11001.139            0   -10670.213    11840.749 
   46600    1070.2485   -10996.731            0   -10664.853     11874.85 
   46700    1106.1255   -11000.421            0   -10657.417     12272.92 
   46800    1111.9406   -10997.684            0   -10652.876    12337.441 
   46900    1102.7617   -10995.146            0   -10653.185    12235.597 
   47000    1086.5898   -11001.524            0   -10664.578    12056.163 
   47100    1051.4151   -10999.214            0   -10673.175    11665.886 
   47200    1109.2984   -11005.881            0   -10661.893    12308.124 
   47300    1106.4599    -10998.65            0   -10655.543     12276.63 
   47400    1120.4634   -11003.955            0   -10656.505    12432.005 
   47500    1088.3188   -11000.959            0   -10663.477    12075.348 
   47600    1086.1881   -11011.808            0   -10674.986    12051.706 
   47700    1073.3908   -11002.497            0   -10669.644    11909.714 
   47800    1111.8643   -11001.786            0   -10657.002    12336.595 
   47900    1113.0015   -11002.946            0    -10657.81    12349.212 
   48000    1089.8718   -11001.699            0   -10663.735    12092.578 
   48100    1079.4486   -11004.636            0   -10669.904    11976.929 
   48200    1085.7099   -11006.431            0   -10669.757      12046.4 
   48300    1096.2785   -10996.527            0   -10656.577    12163.663 
   48400    1090.8664   -10986.534            0   -10648.262    12103.614 
   48500    1132.9261   -11002.941            0   -10651.627    12570.283 
   48600    1104.8972   -11006.016            0   -10663.392    12259.291 
   48700    1087.3201   -11004.939            0   -10667.767    12064.266 
   48800    1072.1177   -10998.143            0   -10665.684     11895.59 
   48900    1076.5998   -10992.321            0   -10658.473     11945.32 
   49000    1103.0716   -10993.294            0   -10651.237    12239.035 
   49100    1134.1207   -11003.955            0    -10652.27    12583.539 
   49200    1105.5752   -11002.409            0   -10659.576    12266.814 
   49300    1080.3456   -11000.024            0   -10665.015    11986.881 
   49400    1108.5223   -11007.707            0    -10663.96    12299.514 
   49500    1116.2953   -11002.524            0   -10656.367    12385.758 
   49600    1126.3311   -10996.765            0   -10647.495     12497.11 
   49700     1115.668   -10995.208            0   -10649.245    12378.798 
   49800    1095.9167   -11003.918            0    -10664.08    12159.649 
   49900    1106.5745   -11010.642            0   -10667.498    12277.902 
   50000    1106.7916   -11005.827            0   -10662.617     12280.31 
Loop time of 16628.4 on 1 procs for 50000 steps with 2400 atoms

Performance: 0.260 ns/day, 92.380 hours/ns, 3.007 timesteps/s
91.7% CPU use with 1 MPI tasks x 1 OpenMP threads

MPI task timing breakdown:
Section |  min time  |  avg time  |  max time  |%varavg| %total
---------------------------------------------------------------
Pair    | 16589      | 16589      | 16589      |   0.0 | 99.76
Neigh   | 31.505     | 31.505     | 31.505     |   0.0 |  0.19
Comm    | 3.4294     | 3.4294     | 3.4294     |   0.0 |  0.02
Output  | 0.017065   | 0.017065   | 0.017065   |   0.0 |  0.00
Modify  | 3.6484     | 3.6484     | 3.6484     |   0.0 |  0.02
Other   |            | 1.072      |            |       |  0.01

Nlocal:        2400.00 ave        2400 max        2400 min
Histogram: 1 0 0 0 0 0 0 0 0 0
Nghost:        5143.00 ave        5143 max        5143 min
Histogram: 1 0 0 0 0 0 0 0 0 0
Neighs:         0.00000 ave           0 max           0 min
Histogram: 1 0 0 0 0 0 0 0 0 0
FullNghs:      274918.0 ave      274918 max      274918 min
Histogram: 1 0 0 0 0 0 0 0 0 0

Total # of neighbors = 274918
Ave neighs/atom = 114.54917
Neighbor list builds = 2070
Dangerous builds = 0
Setting up Verlet run ...
  Unit style    : metal
  Current step  : 50000
  Time step     : 0.001
Per MPI rank memory allocation (min/avg/max) = 4.247 | 4.247 | 4.247 Mbytes
Step Temp E_pair TotEng f_3 v_tdiff 
   50000         1100   -11005.823   -10664.719            0            0 
   51000    1092.5126   -11003.508   -10664.725    41.188831  0.029696035 
   52000    1102.8558   -11006.729   -10664.738    81.076601  0.045742126 
   53000    1080.9319   -10999.893   -10664.701    119.57613  0.050963493 
   54000    1100.9193   -11006.124   -10664.734    156.98264  0.054081501 
   55000    1083.5335   -11000.729   -10664.731    192.82775  0.053535911 
   56000    1086.1731   -11001.546   -10664.729    226.70415  0.062534926 
   57000    1102.4764   -11006.604   -10664.732    266.16947  0.053493509 
   58000     1077.133   -10998.727   -10664.713    301.92549  0.060827645 
   59000    1065.7729   -10995.221    -10664.73    339.29554   0.06637847 
   60000    1101.3451   -11006.258   -10664.736    374.71587  0.066847928 
   61000    1092.2988   -11003.444   -10664.728    409.35339  0.060033489 
   62000    1098.2356   -11005.288   -10664.731    446.16807  0.063732023 
   63000    1113.2821   -11009.969   -10664.745    482.65151  0.057560143 
   64000    1103.9824   -11007.081   -10664.742      519.775  0.057986721 
   65000    1088.1447    -11002.17   -10664.742    556.97664  0.064540006 
   66000    1104.3382   -11007.204   -10664.754    592.74813  0.058447889 
   67000    1109.8371   -11008.906   -10664.751    629.98186  0.050211772 
   68000    1110.0936   -11008.983   -10664.749      666.573  0.046929732 
   69000      1088.18   -11002.188   -10664.749    702.68789  0.050818952 
   70000    1109.3371   -11008.753   -10664.753    740.62498  0.057370738 
   71000    1086.2002   -11001.562   -10664.736    776.28403  0.057810624 
   72000    1072.7775   -10997.394   -10664.731    811.87363   0.05735668 
   73000    1092.9118   -11003.651   -10664.745     848.1194  0.051995161 
   74000    1096.6772   -11004.801   -10664.727    882.77412  0.053230277 
   75000    1102.6758    -11006.68   -10664.745    919.20338  0.056521641 
   76000    1100.1665   -11005.892   -10664.735    955.24062  0.055119074 
   77000    1096.5709   -11004.781    -10664.74    992.47742  0.052933682 
   78000    1094.4222   -11004.107   -10664.732    1028.2929  0.052218237 
   79000    1070.9951   -10996.845   -10664.734    1063.5743  0.054488588 
   80000    1099.1046   -11005.576   -10664.749     1098.462  0.060244721 
   81000    1098.7849    -11005.46   -10664.732    1134.9512  0.060223286 
   82000    1089.8576   -11002.724   -10664.764    1171.6992  0.053224341 
   83000    1095.0395   -11004.327   -10664.761    1207.4779   0.05483705 
   84000    1083.2626   -11000.674   -10664.759    1243.1334  0.054619124 
   85000    1102.4313   -11006.639    -10664.78    1280.4146  0.050836454 
   86000     1076.162   -10998.477   -10664.764      1317.21  0.054657235 
   87000    1106.1905   -11007.804   -10664.779    1352.2532  0.057838017 
   88000    1085.0502   -11001.257   -10664.788    1387.3786  0.058411318 
   89000    1080.8607   -10999.929   -10664.759    1420.4947  0.058474927 
   90000    1099.4468   -11005.689   -10664.756    1457.1695  0.055101224 
   91000    1095.2224   -11004.373    -10664.75    1494.6954  0.055834221 
   92000     1095.556   -11004.479   -10664.752    1530.1681  0.058316359 
   93000    1099.6874   -11005.741   -10664.734    1567.2618  0.054177511 
   94000    1100.1386   -11005.893   -10664.745     1604.366   0.05274121 
   95000    1088.9311   -11002.421   -10664.749    1640.1422  0.053829462 
   96000    1118.6943   -11011.653   -10664.752    1677.6307  0.052725879 
   97000    1093.6097   -11003.858   -10664.735    1713.5381  0.052253203 
   98000    1108.5679   -11008.521    -10664.76    1747.6875  0.055975077 
   99000    1098.8305   -11005.498   -10664.756    1781.8504  0.050773124 
  100000    1103.3491   -11006.899   -10664.756    1819.1084  0.052793797 
  101000    1080.8706   -10999.939   -10664.767    1855.0152  0.059056477 
  102000    1111.8406    -11009.55   -10664.773    1890.6474  0.053546483 
  103000    1068.0931   -10995.957   -10664.747    1926.6978  0.056694332 
  104000    1107.7738   -11008.272   -10664.757     1963.747  0.059328785 
  105000    1075.9197     -10998.4   -10664.763     2000.697  0.061338818 
  106000     1100.601   -11006.068   -10664.777    2036.7929  0.055048169 
  107000    1108.2002   -11008.417    -10664.77    2074.1167  0.054699349 
  108000    1077.2902   -10998.853    -10664.79    2111.8791  0.054478246 
  109000    1117.8964    -11011.44   -10664.786    2148.0945   0.05379718 
  110000    1101.6742    -11006.42   -10664.796    2182.4099   0.05318317 
  111000    1081.2936   -11000.088   -10664.784    2219.1644  0.055549841 
  112000    1075.3863   -10998.259   -10664.787    2255.1001  0.057109512 
  113000    1097.4666   -11005.103   -10664.784    2291.1642  0.053735165 
  114000    1099.8402   -11005.839   -10664.784    2326.3221  0.058319399 
  115000     1087.282   -11001.933   -10664.772    2361.1393  0.058865453 
  116000    1076.4826   -10998.592    -10664.78    2398.4859  0.052671256 
  117000    1080.8882   -10999.961   -10664.783    2435.8746   0.05699651 
  118000    1088.3042   -11002.274   -10664.797    2472.4824  0.061458712 
  119000    1091.7591   -11003.334   -10664.785    2509.1193  0.064088518 
  120000     1093.946   -11004.001   -10664.774    2545.6387  0.059595517 
  121000    1112.8427   -11009.869   -10664.782    2581.7992  0.054940279 
  122000     1092.926   -11003.679   -10664.768    2616.3699  0.055750815 
  123000    1090.7786   -11003.007   -10664.762    2650.6183  0.059771695 
  124000    1103.4978   -11006.976   -10664.786    2687.3995  0.056330873 
  125000    1094.8327   -11004.266   -10664.763    2723.0925  0.059731925 
  126000    1074.3311   -10997.909   -10664.764    2759.5803  0.059698431 
  127000    1098.1172   -11005.292   -10664.771    2794.3189  0.056491369 
  128000      1100.44   -11006.028   -10664.787    2830.7948  0.058335685 
  129000    1091.5405   -11003.268   -10664.786    2865.6605  0.061233059 
  130000    1094.8737   -11004.294   -10664.779    2904.1509  0.054571131 
  131000    1091.7322   -11003.325   -10664.784    2940.4283  0.056879792 
  132000    1085.5052   -11001.396   -10664.786    2975.3886  0.055491934 
  133000    1097.7528   -11005.194   -10664.787     3011.836  0.052433954 
  134000    1095.0873   -11004.366   -10664.785    3050.4372  0.057351637 
  135000    1090.3604   -11002.915     -10664.8    3086.7109  0.055721516 
  136000    1097.9857   -11005.271   -10664.791    3123.9247  0.052624263 
  137000    1118.9171   -11011.765   -10664.794    3162.6978  0.050742846 
  138000    1078.7148   -10999.288   -10664.784    3198.5759  0.054476413 
  139000    1100.8863    -11006.16   -10664.781    3234.1422  0.056614247 
  140000    1106.2724   -11007.853   -10664.803    3270.0209  0.056632627 
  141000    1107.5924   -11008.259     -10664.8    3305.6395  0.061679187 
  142000    1090.2885   -11002.884   -10664.791    3339.5061   0.06181293 
  143000    1112.7549    -11009.85    -10664.79    3374.4653  0.059819338 
  144000    1105.3897    -11007.56   -10664.784    3411.6523  0.062421872 
  145000    1107.8911   -11008.318   -10664.767    3446.3566  0.057508827 
  146000    1093.4627   -11003.839   -10664.761    3482.3085  0.060570726 
  147000    1099.9966   -11005.892   -10664.788     3517.657  0.054915157 
  148000     1095.785   -11004.574   -10664.777    3555.3119  0.051945242 
  149000    1095.3457   -11004.455   -10664.794    3591.1571  0.056223885 
  150000    1098.2621   -11005.342   -10664.776    3627.7985  0.053125367 
  151000    1092.3445   -11003.506   -10664.775    3663.6803  0.057691926 
  152000    1093.6748   -11003.898   -10664.755    3699.8256  0.055116407 
  153000    1088.0642   -11002.158   -10664.755    3734.3156   0.05798218 
  154000     1089.003   -11002.454    -10664.76    3769.7295  0.055345637 
  155000    1093.9622   -11004.007   -10664.775    3803.7562  0.058021724 
  156000    1108.1956   -11008.431   -10664.785     3841.178  0.058712851 
  157000     1098.282   -11005.346   -10664.774    3875.4727  0.056652627 
  158000    1074.6255   -10997.983   -10664.747    3911.9455  0.051898814 
  159000    1098.0786    -11005.28   -10664.772    3948.2949   0.05300868 
  160000    1107.5738   -11008.242   -10664.789    3985.9484  0.057306405 
  161000    1090.8083   -11003.013   -10664.758    4022.9231  0.054241796 
  162000    1089.4373   -11002.608   -10664.779    4059.1403  0.056419299 
  163000    1081.0322   -10999.995   -10664.772    4093.9163  0.060332409 
  164000    1102.0666   -11006.519   -10664.773    4129.6891  0.057577985 
  165000    1098.6998   -11005.489   -10664.788    4166.5281  0.057435558 
  166000    1079.5291   -10999.533   -10664.777    4199.8808  0.056218062 
  167000    1097.5263   -11005.122   -10664.785    4237.3639  0.049981161 
  168000    1097.9057   -11005.241   -10664.786    4273.5797  0.056955146 
  169000    1106.9313   -11008.051   -10664.797    4310.6166   0.05488808 
  170000    1122.7857   -11012.947   -10664.777     4346.015  0.059038066 
  171000    1065.6789   -10995.231    -10664.77    4382.6946  0.056696784 
  172000    1103.2856   -11006.895   -10664.771    4417.7604  0.058808569 
  173000    1091.3294   -11003.182   -10664.766    4453.7426  0.055370612 
  174000    1091.9571   -11003.393   -10664.782    4487.8665  0.055945351 
  175000    1107.3685   -11008.181   -10664.791    4523.3131  0.055743253 
  176000    1088.6202   -11002.335   -10664.759    4558.8472  0.052512431 
  177000    1072.9961     -10997.5   -10664.769    4594.9571  0.060159221 
  178000    1103.2057   -11006.876   -10664.777    4631.6891  0.054323553 
  179000    1064.9824   -10995.014   -10664.768    4666.7138  0.057402434 
  180000    1105.6032   -11007.611   -10664.769    4704.4963  0.056285193 
  181000    1092.7289   -11003.628   -10664.778    4739.5532  0.052834973 
  182000    1080.0165   -10999.683   -10664.775    4775.7987  0.056286332 
  183000    1100.9845   -11006.188   -10664.778     4810.907  0.059593604 
  184000    1086.2514   -11001.632   -10664.791    4844.8235  0.053446506 
  185000    1113.7972   -11010.142   -10664.759    4881.4565  0.049550024 
  186000    1113.7497   -11010.141   -10664.772    4918.4119  0.053662631 
  187000    1095.4645   -11004.446   -10664.748    4955.4221  0.049043686 
  188000    1074.6728   -10998.014   -10664.763    4991.6753  0.050536329 
  189000    1103.7464    -11007.05   -10664.783    5026.0944  0.054414543 
  190000    1080.8542   -10999.916   -10664.748    5064.6588  0.056800791 
  191000    1103.3525   -11006.941   -10664.797    5100.5921  0.059061264 
  192000     1097.329   -11005.025   -10664.749     5135.198  0.052810027 
  193000    1076.2625   -10998.501   -10664.757    5171.6058  0.056158713 
  194000    1102.7646   -11006.743   -10664.781    5206.6217   0.05665369 
  195000    1093.5861   -11003.904   -10664.789    5240.9662  0.062016189 
  196000    1128.8743   -11014.837   -10664.779      5276.46  0.053194422 
  197000    1098.2782   -11005.316   -10664.746    5312.4651  0.056451006 
  198000     1121.722     -11012.6   -10664.759     5348.635   0.05341796 
  199000    1100.2284    -11005.95   -10664.775    5386.2081   0.05618381 
  200000    1087.2581   -11001.928   -10664.774    5420.7899  0.058919023 
  201000    1083.9016   -11000.891   -10664.778    5454.5733  0.053067589 
  202000    1093.0393   -11003.719   -10664.773    5488.6128  0.056145591 
  203000     1108.261   -11008.437    -10664.77     5524.986  0.054616122 
  204000    1088.3843   -11002.253    -10664.75    5559.8119  0.053430539 
  205000    1071.1865   -10996.916   -10664.746    5595.8743  0.059409833 
  206000    1095.3288   -11004.417   -10664.761    5631.1748  0.057174176 
  207000    1095.2934   -11004.434   -10664.788    5667.1014  0.058832106 
  208000    1124.0337   -11013.338   -10664.781    5701.6734  0.056310151 
  209000    1099.9364   -11005.838   -10664.753    5738.3685  0.058429037 
  210000    1091.7889   -11003.325   -10664.767    5776.2452  0.048428255 
  211000    1132.3786   -11015.922   -10664.777    5810.7443  0.054040702 
  212000    1087.4231   -11001.976   -10664.771     5848.043  0.045471488 
  213000    1100.7191   -11006.105   -10664.778    5883.8437  0.053925886 
  214000    1086.0799   -11001.542   -10664.754    5921.9676  0.052249653 
  215000    1111.0654   -11009.287   -10664.751    5958.6333  0.052429107 
  216000    1106.8458   -11007.986   -10664.759     5993.598  0.056897679 
  217000    1092.0225   -11003.407   -10664.776    6030.4307  0.059325819 
  218000    1103.2004   -11006.876   -10664.779    6066.6686  0.056830775 
  219000     1094.773   -11004.269   -10664.785    6103.2406  0.056933045 
  220000    1090.5517    -11002.93   -10664.755    6138.9462   0.05680351 
  221000     1074.988   -10998.122   -10664.774    6174.4542  0.059529078 
  222000    1082.5474    -11000.46   -10664.767    6211.2538  0.055990109 
  223000    1094.1857   -11004.086   -10664.784    6248.2985   0.05322469 
  224000    1079.2093   -10999.461   -10664.803    6285.8075  0.054022717 
  225000    1097.5047   -11005.116   -10664.785    6322.4873    0.0597822 
  226000    1109.2996   -11008.761   -10664.772    6358.4043  0.052630832 
  227000    1104.3164   -11007.229   -10664.785    6396.5904  0.059880058 
  228000     1092.995   -11003.701   -10664.769    6430.9848  0.058292265 
  229000    1096.2209   -11004.718   -10664.785    6467.7262  0.056900211 
  230000    1109.8077   -11008.945   -10664.799    6503.2593  0.060291031 
  231000    1094.9077   -11004.302   -10664.776    6536.5419  0.060111281 
  232000    1107.2213   -11008.148   -10664.805    6571.8657  0.056368921 
  233000    1071.1584   -10996.914   -10664.753    6607.5004  0.060295342 
  234000    1099.8614   -11005.843   -10664.781    6642.8288  0.053777426 
  235000    1073.6926   -10997.705   -10664.758    6678.3482  0.051167671 
  236000    1119.3342   -11011.879   -10664.779    6715.2956  0.057119633 
  237000    1055.5654   -10992.084   -10664.758    6749.6337  0.055227942 
  238000    1101.1115   -11006.233   -10664.784    6785.5882   0.05929841 
  239000    1077.0526   -10998.773   -10664.785     6821.319  0.061780722 
  240000    1093.5437   -11003.872    -10664.77    6856.7757  0.057028241 
  241000    1092.9171   -11003.686   -10664.777    6893.1185  0.055412035 
  242000    1078.2328   -10999.114    -10664.76    6930.1965  0.053808612 
  243000    1073.7919   -10997.765   -10664.787     6965.138  0.051451718 
  244000    1069.0396   -10996.266   -10664.762    7002.7854  0.053175016 
  245000    1087.6393   -11002.063   -10664.792    7038.8228  0.057712138 
  246000    1093.9441   -11004.007    -10664.78     7074.004  0.059075684 
  247000    1078.5324   -10999.219   -10664.771    7109.4249  0.060736693 
  248000    1090.2802   -11002.871   -10664.781    7146.4559  0.062548332 
  249000    1100.6575   -11006.098   -10664.789    7181.9606  0.050300389 
  250000    1095.2074   -11004.402   -10664.784    7218.3903  0.055852096 
Loop time of 55838 on 1 procs for 200000 steps with 2400 atoms

Performance: 0.309 ns/day, 77.553 hours/ns, 3.582 timesteps/s
93.3% CPU use with 1 MPI tasks x 1 OpenMP threads

MPI task timing breakdown:
Section |  min time  |  avg time  |  max time  |%varavg| %total
---------------------------------------------------------------
Pair    | 55691      | 55691      | 55691      |   0.0 | 99.74
Neigh   | 119.15     | 119.15     | 119.15     |   0.0 |  0.21
Comm    | 12.955     | 12.955     | 12.955     |   0.0 |  0.02
Output  | 0.0061386  | 0.0061386  | 0.0061386  |   0.0 |  0.00
Modify  | 10.68      | 10.68      | 10.68      |   0.0 |  0.02
Other   |            | 4.12       |            |       |  0.01

Nlocal:        2400.00 ave        2400 max        2400 min
Histogram: 1 0 0 0 0 0 0 0 0 0
Nghost:        5184.00 ave        5184 max        5184 min
Histogram: 1 0 0 0 0 0 0 0 0 0
Neighs:         0.00000 ave           0 max           0 min
Histogram: 1 0 0 0 0 0 0 0 0 0
FullNghs:      275594.0 ave      275594 max      275594 min
Histogram: 1 0 0 0 0 0 0 0 0 0

Total # of neighbors = 275594
Ave neighs/atom = 114.83083
Neighbor list builds = 8660
Dangerous builds = 0
Setting up Verlet run ...
  Unit style    : metal
  Current step  : 250000
  Time step     : 0.001
Per MPI rank memory allocation (min/avg/max) = 4.500 | 4.500 | 4.500 Mbytes
Step Temp E_pair TotEng f_3 v_tdiff f_ave 
  250000    1095.2074   -11004.401   -10664.783            0  0.055852096  0.055852096 
  251000    1105.1759   -11007.499   -10664.789    37.330653  0.055343996  0.055598046 
  252000    1118.0342   -11011.499   -10664.802    74.564946  0.051358979  0.054185024 
  253000    1079.9373   -10999.667   -10664.784    110.13485  0.049987804  0.053135719 
  254000    1091.1871   -11003.177   -10664.805    144.11627   0.05715628  0.053939831 
  255000    1113.0003   -11009.953   -10664.817    178.81286  0.055865216  0.054260729 
  256000    1096.1555   -11004.715   -10664.802    214.25932  0.059424895  0.054998467 
  257000    1081.6439   -11000.209   -10664.797    248.35611  0.062022262  0.055876441 
  258000     1118.468   -11011.632     -10664.8    285.30222  0.061784723  0.056532917 
  259000    1104.6739   -11007.344    -10664.79    321.46482  0.058127683  0.056692393 
  260000    1099.2156   -11005.642    -10664.78    357.04889  0.053980682  0.056445874 
  261000    1104.4142   -11007.261   -10664.787    391.92838   0.05702676  0.056494281 
  262000    1103.5181   -11006.981   -10664.786     430.4728  0.052300675  0.056171696 
  263000    1070.4519   -10996.704   -10664.762    466.11352  0.053898506  0.056009325 
  264000    1095.1004   -11004.353   -10664.767    500.98643  0.050436313  0.055637791 
  265000    1083.7032    -11000.83   -10664.779    535.80258  0.056300217  0.055679193 
  266000    1093.8759   -11003.998   -10664.793    570.06386  0.061005596  0.055992511 
  267000    1093.7623   -11003.952   -10664.782     604.7922  0.058963809  0.056157583 
  268000    1113.8792   -11010.212   -10664.803     641.7307  0.059207006  0.056318079 
  269000    1113.2966   -11010.033   -10664.805    677.56598  0.058385881  0.056421469 
  270000    1094.1461   -11004.084   -10664.795    715.34736  0.051179556  0.056171854 
  271000    1081.0609   -11000.015   -10664.783    752.71284  0.053723778  0.056060578 
  272000    1100.0111   -11005.883   -10664.775    786.99152  0.056224559  0.056067707 
  273000    1092.3852   -11003.506   -10664.763     822.6122  0.052608302  0.055923566 
  274000    1080.0035   -10999.669   -10664.765    859.36388  0.059201074  0.056054666 
  275000    1092.5413   -11003.579   -10664.787    893.58656  0.059420465   0.05618412 
  276000    1061.7435   -10994.021   -10664.779    928.94356  0.051710773   0.05601844 
  277000    1117.7465   -11011.392   -10664.784    964.11569   0.05777477  0.056081166 
  278000    1089.5852   -11002.659   -10664.784    1002.0505  0.054096847  0.056012741 
  279000     1080.493   -10999.837   -10664.781    1040.0292  0.055184831  0.055985144 
  280000    1084.8622   -11001.205   -10664.795    1078.2539  0.052122171  0.055860532 
  281000    1093.5884   -11003.896    -10664.78    1114.6474  0.061482893  0.056036231 
  282000    1094.5298   -11004.191   -10664.783    1152.5007  0.057306236  0.056074716 
  283000    1102.9117   -11006.792   -10664.784    1188.5111  0.056144092  0.056076757 
  284000    1103.5347   -11006.979   -10664.778    1224.7012   0.05860206  0.056148908 
  285000    1107.2768   -11008.159   -10664.798    1259.1457  0.059945235  0.056254362 
  286000    1079.4543   -10999.518   -10664.784    1295.0578  0.047496128  0.056017653 
  287000    1087.6572    -11002.07   -10664.793    1333.1128  0.052930826   0.05593642 
  288000    1094.0573   -11004.044   -10664.782    1369.0458  0.056976655  0.055963093 
  289000    1093.9399   -11004.017   -10664.791    1406.6208  0.056715613  0.055981906 
  290000    1083.6365   -11000.811    -10664.78    1441.8936  0.058989649  0.056055266 
  291000    1081.1436   -11000.033   -10664.776    1478.4264  0.055379274  0.056039171 
  292000     1124.019   -11013.357   -10664.805    1514.4204  0.055714124  0.056031611 
  293000    1098.2343    -11005.36   -10664.803     1549.843  0.057710435  0.056069766 
  294000    1083.3073   -11000.734   -10664.806    1586.3925  0.058007687  0.056112831 
  295000    1083.1253   -11000.683   -10664.811    1621.6148  0.056977897  0.056131637 
  296000    1109.5618   -11008.877   -10664.807    1657.1444  0.056289323  0.056134992 
  297000    1098.9974   -11005.598   -10664.804    1693.2593  0.053971176  0.056089913 
  298000    1092.0199   -11003.435   -10664.805     1727.866   0.05553221  0.056078531 
  299000    1081.5915   -11000.196     -10664.8    1763.8922  0.056688098  0.056090722 
  300000    1101.7134    -11006.44   -10664.805    1801.4058  0.058439609  0.056136779 
  301000    1091.1735   -11003.176   -10664.808    1835.5159  0.058620211  0.056184537 
  302000    1111.7555   -11009.563   -10664.814    1869.8351  0.055955502  0.056180216 
  303000    1104.7338    -11007.38   -10664.807    1907.6518  0.053319704  0.056127243 
  304000    1086.4176   -11001.708   -10664.815    1945.3835  0.051786512  0.056048321 
  305000    1086.5765   -11001.758   -10664.816    1981.0076  0.057378611  0.056072076 
  306000    1100.6529   -11006.145   -10664.837     2016.806  0.060078222  0.056142359 
  307000    1108.9972   -11008.717   -10664.822    2053.9584  0.054246304  0.056109669 
  308000    1107.2729   -11008.199   -10664.839    2089.7333  0.056305782  0.056112993 
  309000    1092.6894    -11003.66   -10664.823     2126.661  0.055624588  0.056104853 
  310000    1104.2063   -11007.237   -10664.828    2164.3167  0.059820367  0.056165763 
  311000    1086.2739   -11001.672   -10664.824    2199.8764  0.058885875  0.056209635 
  312000    1098.4628   -11005.455   -10664.827    2235.3329  0.054680309   0.05618536 
  313000    1072.3397    -10997.35   -10664.822    2272.2105  0.055810232  0.056179499 
  314000    1102.0737   -11006.568   -10664.821    2307.5065  0.055399754  0.056167503 
  315000    1095.7742    -11004.63   -10664.836    2343.1807  0.050703354  0.056084713 
  316000    1071.9625   -10997.247   -10664.837    2377.4608  0.057539433  0.056106425 
  317000    1102.6948    -11006.77   -10664.829    2413.0638  0.052857917  0.056058653 
  318000    1097.5652   -11005.185   -10664.835    2448.7897  0.054951918  0.056042613 
  319000    1120.8935   -11012.428   -10664.844     2485.684  0.058732407  0.056081039 
  320000    1093.3447   -11003.865   -10664.824    2521.9307  0.056911902  0.056092741 
  321000    1083.1504   -11000.721   -10664.841    2558.2378   0.05823309  0.056122468 
  322000    1075.0526   -10998.186   -10664.817    2594.0827  0.052767873  0.056076515 
  323000    1100.9485   -11006.226   -10664.827    2632.5555  0.052927907  0.056033966 
  324000    1089.4251   -11002.664   -10664.839    2668.6479  0.059016774  0.056073737 
  325000    1094.7139   -11004.272   -10664.807    2703.9299  0.058517793  0.056105896 
  326000    1095.6837   -11004.583   -10664.817     2741.203  0.055981749  0.056104283 
  327000    1105.5292   -11007.672   -10664.853    2776.0391  0.058744294   0.05613813 
  328000    1099.9367   -11005.951   -10664.866    2811.3651  0.059854677  0.056185174 
  329000    1085.3792   -11001.382   -10664.811    2847.2559  0.062640497  0.056265866 
  330000    1075.4199   -10998.326   -10664.844    2881.2767  0.057370986  0.056279509 
  331000    1094.1967   -11004.155    -10664.85    2918.2181  0.058802551  0.056310278 
  332000     1078.137   -10999.154   -10664.829    2955.2069  0.058402474  0.056335485 
  333000    1102.7751   -11006.804   -10664.839    2990.9073  0.056685034  0.056339647 
  334000    1092.8137   -11003.701   -10664.825    3027.1623  0.055677357  0.056331855 
  335000     1093.837    -11004.03   -10664.837    3062.7917  0.060226094  0.056377137 
  336000    1099.7698   -11005.876   -10664.843     3099.944  0.060382954  0.056423181 
  337000    1099.9753   -11005.931   -10664.834    3136.3671  0.054051417  0.056396229 
  338000    1077.1511   -10998.852   -10664.832    3172.8265   0.05378147   0.05636685 
  339000    1098.5423   -11005.486   -10664.834    3209.1992  0.056055519   0.05636339 
  340000    1107.0198   -11008.133   -10664.851    3246.0855  0.051495189  0.056309894 
  341000    1098.1025    -11005.37   -10664.854    3280.9431  0.050940144  0.056251527 
  342000    1100.8783   -11006.212   -10664.835    3316.3986  0.056904809  0.056258551 
  343000    1062.4619   -10994.295   -10664.831    3352.3088  0.048892425  0.056180188 
  344000    1084.8948   -11001.252   -10664.831    3386.6668  0.052197188  0.056138262 
  345000    1075.1122   -10998.218   -10664.831    3422.1111  0.058534093  0.056163219 
  346000    1077.7002   -10999.017   -10664.827    3458.1826   0.05335197  0.056134237 
  347000    1074.2176   -10997.922   -10664.812    3493.9418  0.057697547  0.056150189 
  348000    1086.6019   -11001.771   -10664.822    3530.0988  0.049603882  0.056084064 
  349000    1103.2598   -11006.947   -10664.832     3567.829  0.052146971  0.056044694 
  350000    1088.1764   -11002.272   -10664.834    3601.8787  0.055669945  0.056040983 
  351000    1099.9565   -11005.916   -10664.825    3638.2744  0.054819517  0.056029008 
  352000    1102.8917   -11006.848   -10664.846    3675.0817  0.063817801  0.056104627 
  353000    1093.3129   -11003.858   -10664.827    3711.8959   0.05108566  0.056056368 
  354000    1099.9868   -11005.913   -10664.813    3748.3912  0.057636438  0.056071416 
  355000     1105.162   -11007.543   -10664.838    3784.5538  0.055356069  0.056064668 
  356000    1104.4075   -11007.314   -10664.843    3820.4846   0.05976859  0.056099284 
  357000    1085.1112   -11001.315   -10664.828     3854.539  0.058439728  0.056120955 
  358000    1098.9761   -11005.627    -10664.84    3890.6851  0.052563733   0.05608832 
  359000    1092.7853   -11003.707    -10664.84    3927.7702  0.051680917  0.056048252 
  360000    1079.4775   -10999.574   -10664.834    3961.7109  0.051959599  0.056011418 
  361000    1077.5552    -10998.98   -10664.836    3997.7931  0.052363867   0.05597885 
  362000    1108.4657   -11008.588   -10664.858    4034.3385  0.051310161  0.055937534 
  363000    1097.2339    -11005.09   -10664.843    4069.9812  0.058617166   0.05596104 
  364000    1095.5701   -11004.578   -10664.847    4106.4746  0.058322917  0.055981578 
  365000    1104.7579   -11007.437   -10664.857    4140.7033  0.052583836  0.055952287 
  366000    1106.4203   -11007.949   -10664.854      4176.43  0.057952139   0.05596938 
  367000    1088.8189   -11002.479   -10664.841    4213.3874   0.05263608  0.055941132 
  368000     1104.405   -11007.312   -10664.842    4248.4998  0.057296344   0.05595252 
  369000    1111.0188   -11009.375   -10664.854    4283.5392   0.05729485  0.055963706 
  370000    1074.7334    -10998.12   -10664.851    4320.3555  0.053446932  0.055942906 
  371000    1087.8706   -11002.191   -10664.848    4359.2564  0.055477344   0.05593909 
  372000    1099.4575   -11005.771   -10664.834    4393.2311  0.064978548  0.056012582 
  373000    1089.1927   -11002.578   -10664.825    4429.4547  0.056875874  0.056019544 
  374000     1105.252   -11007.583    -10664.85    4464.8931   0.06114949  0.056060583 
  375000    1077.7811   -10999.052   -10664.837    4500.9868  0.058767802  0.056082069 
  376000    1108.4742   -11008.557   -10664.824    4538.7411  0.063494817  0.056140437 
  377000    1097.2098   -11005.057   -10664.817    4572.8577  0.057463223  0.056150771 
  378000    1116.3374   -11011.008   -10664.837    4608.7234  0.055873565  0.056148623 
  379000     1103.628   -11007.064   -10664.835    4644.3598  0.055771044  0.056145718 
  380000    1092.1777   -11003.503   -10664.824     4680.864    0.0525498  0.056118268 
  381000    1094.2798   -11004.149   -10664.819    4717.7688  0.058527785  0.056136522 
  382000    1093.4068   -11003.872   -10664.812     4752.847  0.055529193  0.056131956 
  383000    1088.1336   -11002.239   -10664.814    4788.1262   0.05455464  0.056120185 
  384000    1099.0026   -11005.609   -10664.814    4823.5724  0.059247121  0.056143347 
  385000    1102.7768   -11006.786    -10664.82    4861.0841  0.056857854  0.056148601 
  386000    1084.8596   -11001.196   -10664.787    4896.5994  0.058848643  0.056168309 
  387000    1095.6045   -11004.561   -10664.819    4931.2998  0.057465904  0.056177712 
  388000    1098.2682   -11005.375   -10664.807    4967.4957  0.062971745   0.05622659 
  389000    1088.1057   -11002.215   -10664.799    5002.4277  0.056466011    0.0562283 
  390000    1085.7432   -11001.481   -10664.798    5040.6848  0.056639464  0.056231216 
  391000    1123.9341   -11013.336   -10664.809    5075.9148  0.055637559  0.056227036 
  392000    1095.1003   -11004.382   -10664.797    5111.8079  0.057176965  0.056233679 
  393000    1082.4972   -11000.478     -10664.8    5147.6707  0.053456267  0.056214391 
  394000    1078.0369   -10999.104    -10664.81    5184.8775  0.054843451  0.056204936 
  395000    1122.4659   -11012.879   -10664.808    5221.2599  0.057441932  0.056213409 
  396000    1069.5328   -10996.447    -10664.79    5255.7538  0.057995598  0.056225533 
  397000    1109.0731   -11008.704   -10664.786    5291.3145  0.063436456  0.056274255 
  398000    1088.5501    -11002.33   -10664.776    5325.4141  0.061570942  0.056309803 
  399000    1101.5358   -11006.359   -10664.779    5360.1918  0.054391789  0.056297016 
  400000    1097.6591   -11005.177   -10664.798    5397.6299  0.056578804  0.056298883 
  401000    1072.5626    -10997.38   -10664.783    5433.8823  0.058473274  0.056313188 
  402000    1083.1224   -11000.652   -10664.781    5469.7803  0.053308336  0.056293548 
  403000    1101.7116   -11006.415    -10664.78    5506.5063  0.057254309  0.056299787 
  404000     1085.517   -11001.396   -10664.782    5542.7059  0.058011212  0.056310828 
  405000    1050.8613   -10990.656   -10664.789    5579.4727   0.05570272   0.05630693 
  406000    1089.8199   -11002.751   -10664.803    5615.5601  0.060794253  0.056335512 
  407000    1088.7101   -11002.396   -10664.792    5650.2568  0.063544563  0.056381139 
  408000    1092.3851   -11003.515   -10664.771    5686.7928  0.059275875  0.056399345 
  409000    1078.1272   -10999.104   -10664.782    5722.8037  0.063608054  0.056444399 
  410000    1095.2238   -11004.406   -10664.783    5758.9081  0.057797016  0.056452801 
  411000     1085.893   -11001.528   -10664.798    5797.6078  0.050923536  0.056418669 
  412000    1097.9619   -11005.272     -10664.8    5831.9023  0.058213285  0.056429679 
  413000    1080.0542   -10999.696   -10664.777      5868.39  0.051313048   0.05639848 
  414000     1103.008   -11006.827    -10664.79    5905.9048  0.052216239  0.056373133 
  415000    1077.8482    -10999.04   -10664.805    5942.1952  0.054234603  0.056360251 
  416000    1091.2057   -11003.156   -10664.779    5975.7689  0.054776636  0.056350768 
  417000    1086.7551   -11001.771   -10664.774    6012.9304  0.054186599  0.056337886 
  418000    1095.0327   -11004.369   -10664.805    6050.5622  0.058175969  0.056348762 
  419000    1094.7468   -11004.265   -10664.789    6087.5641  0.059467416  0.056367107 
  420000    1080.3168   -10999.797   -10664.796    6124.5072  0.054940858  0.056358767 
  421000    1107.7427    -11008.31   -10664.804    6160.2163   0.05298555  0.056339155 
  422000    1079.5348   -10999.538    -10664.78    6197.4998  0.052844462  0.056318954 
  423000    1080.4007   -10999.798   -10664.771    6233.3027  0.052951102  0.056299599 
  424000    1082.2503    -11000.38   -10664.779    6269.9655  0.057993134  0.056309276 
  425000    1096.9857   -11004.976   -10664.806    6307.5344  0.051999639   0.05628479 
  426000    1085.7819   -11001.491   -10664.796    6343.3087   0.05785193  0.056293643 
  427000    1090.8168   -11003.049   -10664.792    6378.9703  0.051845229  0.056268652 
  428000     1105.867   -11007.701   -10664.777    6415.3902  0.052514593   0.05624768 
  429000    1095.5439   -11004.525   -10664.803    6451.6594  0.058251085   0.05625881 
  430000    1084.2316   -11001.004   -10664.789     6488.464  0.057498803  0.056265661 
  431000    1099.2889    -11005.68   -10664.796    6524.6348  0.050403365   0.05623345 
  432000    1082.6415   -11000.508   -10664.786    6562.9888  0.044557097  0.056169645 
  433000    1076.1975   -10998.506   -10664.782     6598.978  0.058696369  0.056183377 
  434000    1112.9599   -11009.926   -10664.802    6636.9563  0.057743059  0.056191808 
  435000    1078.3746   -10999.197   -10664.799    6673.0023  0.056394853    0.0561929 
  436000    1083.7152   -11000.866   -10664.811    6710.2698  0.056188348  0.056192875 
  437000    1091.4156   -11003.253    -10664.81    6745.7085  0.060184025  0.056214105 
  438000     1102.538   -11006.686   -10664.794     6782.723  0.057618037  0.056221533 
  439000    1101.0669    -11006.25   -10664.815    6820.6607  0.061568982  0.056249678 
  440000    1086.3661   -11001.686   -10664.809    6857.1554  0.052509664  0.056230096 
  441000    1092.1142   -11003.454   -10664.795    6892.8155  0.056001954  0.056228908 
  442000    1090.9334   -11003.102   -10664.808    6930.6814  0.059172671  0.056244161 
  443000    1113.0543   -11009.964   -10664.811    6965.0196  0.063436926  0.056281237 
  444000     1102.689   -11006.739   -10664.801    6998.4542  0.057531605  0.056287649 
  445000     1081.315   -11000.113   -10664.803    7034.2802  0.054082596  0.056276399 
  446000    1076.9536   -10998.771   -10664.813    7067.8959  0.052147961  0.056255442 
  447000    1103.7258   -11007.063   -10664.804      7104.65   0.05690019  0.056258699 
  448000    1102.7301   -11006.781    -10664.83    7138.2216   0.06228303  0.056288972 
  449000    1087.3383       -11002   -10664.822    7175.5151  0.053542528  0.056275239 
  450000    1093.1589   -11003.787   -10664.804    7213.1253   0.05359431  0.056261901 
Loop time of 54406.5 on 1 procs for 200000 steps with 2400 atoms

Performance: 0.318 ns/day, 75.565 hours/ns, 3.676 timesteps/s
95.1% CPU use with 1 MPI tasks x 1 OpenMP threads

MPI task timing breakdown:
Section |  min time  |  avg time  |  max time  |%varavg| %total
---------------------------------------------------------------
Pair    | 54256      | 54256      | 54256      |   0.0 | 99.72
Neigh   | 122.22     | 122.22     | 122.22     |   0.0 |  0.22
Comm    | 13.178     | 13.178     | 13.178     |   0.0 |  0.02
Output  | 0.0056435  | 0.0056435  | 0.0056435  |   0.0 |  0.00
Modify  | 11.047     | 11.047     | 11.047     |   0.0 |  0.02
Other   |            | 4.213      |            |       |  0.01

Nlocal:        2400.00 ave        2400 max        2400 min
Histogram: 1 0 0 0 0 0 0 0 0 0
Nghost:        5158.00 ave        5158 max        5158 min
Histogram: 1 0 0 0 0 0 0 0 0 0
Neighs:         0.00000 ave           0 max           0 min
Histogram: 1 0 0 0 0 0 0 0 0 0
FullNghs:      275006.0 ave      275006 max      275006 min
Histogram: 1 0 0 0 0 0 0 0 0 0

Total # of neighbors = 275006
Ave neighs/atom = 114.58583
Neighbor list builds = 8668
Dangerous builds = 0
Running average thermal conductivity: 9.93
System init for write_data ...
Total wall time: 35:14:39
