LAMMPS data file via write_data, version 29 Sep 2021, timestep = 450000

2400 atoms
3 atom types

0 21.5088113827161 xlo xhi
0 32.26321707407415 ylo yhi
0 43.0176227654322 zlo zhi

Masses

1 18.998403163
2 6.938
3 22.989769

Atoms # atomic

1144 1 1.1997790571240479 1.3247357427017081 3.555766746717814 2 0 1
1654 2 0.44424918880460834 0.011061021818829522 2.1576583542452146 0 1 0
1100 3 2.6617090564618637 3.459546704829734 0.6305589896160021 0 0 0
539 1 1.351597952254257 1.0461752415529584 0.7098460432727572 -1 0 -1
1905 1 4.1322409380542515 4.350833329681937 1.8837543059865653 1 0 2
673 2 3.54337824086036 4.539488569436253 4.107016707485264 0 2 0
1205 1 6.207026637147783 31.601896026272854 1.9379546849577416 0 -1 1
1857 2 6.0609771241459764 0.9229580340876694 1.2136350811645489 0 1 1
1950 1 6.775226758567493 1.8583547253416661 2.738056638493803 -1 0 1
1643 1 11.759262097987904 0.15019662762467137 1.28673406897093 -1 1 1
1068 2 8.968150432389224 2.2775833799884406 3.849701434164064 0 1 1
1395 3 11.087172793401704 2.231727233550359 1.3305358867232573 -1 0 0
147 1 10.283293388891183 3.4853439575585266 2.6947345824578948 0 0 0
826 1 13.76076361874626 2.4435550237300823 3.8791881761540647 0 0 0
900 3 14.292878571550837 31.53520006814745 0.8135946347754007 0 -1 1
1530 1 12.246217147130723 3.702282303429633 42.32556542739942 1 1 0
1579 2 12.546086621431858 0.820508261402921 4.327030390503964 1 0 1
2020 1 15.638487356618349 32.229270092498346 2.384754802467903 -2 -2 1
951 2 16.210652963069123 1.781666742513588 1.667451509060617 0 2 0
12 1 14.443216000233694 2.9160805354721173 0.8065932054794707 -1 1 1
1500 3 19.009669500674594 1.70664137311674 42.71984531612474 0 0 0
614 1 19.25685218239395 2.6010733677494153 1.9856463646528193 0 1 1
1468 2 19.61452049542301 4.2495448015686135 1.2820772642438403 1 0 1
1000 3 0.8394767829760237 5.061833086838698 42.034766192469945 1 0 0
869 2 3.9000893701730117 5.768488482102412 1.0603386422931584 -2 0 0
2348 1 1.9694264784476265 4.2269855235828215 3.2082891358946566 0 0 1
88 2 6.715943090438803 6.788368464989271 1.4063223799401663 -1 0 -1
1440 1 5.566905006134869 5.965500679663205 3.8226823717128773 0 0 1
1894 3 6.215423786041283 3.934214454549036 3.4671085305167133 0 0 0
1234 1 8.050949484747862 5.401225989304168 1.9626753841602145 -1 0 1
367 2 9.435247047410844 4.415129592629496 1.458586786001115 -2 0 0
773 2 9.349219563285908 6.707459670203501 1.9972907080251003 0 0 1
213 1 10.168839405287839 5.565861773024306 0.42000796960800335 1 1 0
676 2 14.39307965760211 3.489247743923824 2.405643933934481 1 0 0
1633 1 13.075197837517821 4.857499003782047 2.6512085505256664 -1 0 0
571 2 12.11201041723937 5.475923495481547 0.9823552173778949 1 0 0
40 1 17.50340591126338 5.22235811653907 1.4408311524381427 1 0 0
2126 1 15.783619320614207 4.9122019868478874 3.044808028447855 0 0 1
372 2 17.296327355953828 4.003133869719351 2.945708318885251 1 0 -1
487 2 17.39046929437766 6.372018272131187 2.9330200739229 -1 1 0
2007 1 16.032174949533406 7.18817360312382 42.25728070578539 0 1 0
949 1 20.575645181693346 5.326495020359533 2.056000809582404 2 1 1
1960 2 20.27327245532052 6.772092718643065 1.1613865826338716 0 -1 1
563 2 20.26559504876645 4.694795607453306 3.8770155455171085 1 0 0
2140 1 5.06003526021311 7.5351202160766 0.9271200578431983 2 1 0
996 3 0.976236203627257 9.359370751866349 1.493318058299676 0 -1 1
1533 1 2.49876461027567 8.151261937351986 3.0189683614784273 0 0 0
2105 1 8.426315261685852 8.097879169758572 1.199914061039294 1 0 1
1493 3 5.381677752008891 9.875650037361368 1.0608563196242435 0 0 0
1799 3 8.237192642929585 9.18645914954296 3.1575162041405194 1 0 1
1904 1 10.31889881378746 8.666890870796486 42.46255260614557 0 1 0
398 3 8.526713272266603 9.845709062849684 0.14558067727413407 0 1 -1
986 2 11.163240740734969 8.943504630594841 0.9751265480806939 -1 0 0
892 3 13.398997896954475 8.198985845093079 1.7258550717057464 -1 0 1
1309 1 11.150487359091759 7.492346371750209 2.329237748394055 -1 -1 1
1580 2 12.730280118829223 12.442451630857821 2.793868474276779 -2 0 0
2215 1 13.033923599248189 9.13887495264778 42.95083589882507 0 0 1
349 1 13.2651228206753 10.444395686676769 3.0929742984043176 1 0 0
42 1 15.769831204900076 8.001372562821926 2.2607524363050784 -1 -1 0
687 2 16.936276530594224 8.554408417234098 0.4115020587021521 -1 1 0
333 1 21.12522933626946 7.996112416503995 2.2516950763605643 1 1 0
1076 2 21.280170509089388 7.67340541872834 3.944720492675233 -1 0 1
1918 1 18.75901914055081 7.575260960071444 0.5347858549778032 0 0 0
2218 1 0.18215755302072484 6.0074508578634225 4.672956426573995 -2 1 2
509 1 19.648495856007106 8.41612537478169 4.389233931628868 -2 1 0
1597 3 19.08005257399091 8.954815602253127 2.4527474088960646 0 1 1
1387 2 1.937920385672705 11.531919285871737 2.666637957293719 -3 -1 0
238 1 21.406685733215557 13.444705361443205 3.445941971866822 0 1 0
717 1 3.5079112988113095 10.665479806470806 2.2498438102262073 2 0 1
870 2 0.40341895402176076 15.366182707675515 3.207933734318254 1 0 1
908 1 0.6107137650820238 10.869821633799594 3.3684805951400643 1 0 -1
562 2 4.90332308367171 10.989697475988494 3.6133571872479218 -1 1 0
723 1 7.248978760089633 10.840736393720546 1.491474850225488 1 0 1
1692 3 8.31313302577208 12.540003230952886 2.250049348759858 -1 -1 2
1805 1 2.9211396172989494 12.824064587840839 4.088951356997259 1 0 1
638 1 6.738385676552868 13.446130817530998 0.6478202703293628 -2 0 1
1843 1 10.240912351779677 10.365687199755712 1.7089481991038138 -1 -1 1
896 3 10.99223025134177 10.11974692677317 3.901801828520776 -1 1 0
307 1 10.256503790964288 13.175959058198416 1.6523091698972237 -1 1 1
1484 2 9.866305351703321 14.036316397910369 42.9567788766451 -1 -2 -1
1287 2 14.052552414539129 13.369123446417673 0.9879415874334401 -1 -1 0
1442 1 11.586901792436883 12.36161493841889 4.341355702016532 -1 -1 0
928 1 12.660833901950255 12.12379876353251 0.7603766790357689 0 0 0
1820 1 17.254087254996012 10.229775631454045 1.870068515861727 1 -1 0
2285 2 15.751558118454236 9.749179620409498 2.452420522385449 0 1 1
229 1 13.685313311714225 14.080771536510374 3.0724994415383744 1 -1 0
2095 3 19.236344173342598 14.308244093485111 3.433986705156996 0 0 -1
1152 2 20.953571537945333 12.272266159798603 2.0987165584389746 -1 1 0
1418 1 18.99579569307251 12.564768847022211 2.4189511119695966 -1 0 1
1237 1 3.5130880497975667 14.385644604844426 1.1085755397290837 0 0 1
72 2 1.6847714558760978 14.13176478977547 0.5331457456470517 -1 0 -1
801 1 0.3248284011012127 15.570988913023387 1.3976992129193948 -2 0 0
1093 3 2.6556889703486113 16.773651357869408 1.7202217039812124 -3 0 1
1615 1 2.434013093627717 17.057731951899722 42.506154819573474 -1 -1 1
782 2 5.669479980377699 17.727784296918717 1.248058825927069 0 -1 1
1211 1 5.611634539404549 14.832119546091862 2.663897063295755 1 -1 1
131 1 6.019555786117467 16.48497353311202 42.97732170079179 0 -1 -1
579 2 6.34549158453812 14.54674086015945 4.081292514281889 2 0 1
492 3 11.074515847329744 14.702182391010217 2.708378880562657 0 0 1
1124 1 10.15394920061184 18.305869561986288 2.741600185030947 1 1 0
1086 2 7.082240063532462 15.756224904756571 1.3140397294679094 0 0 0
1203 1 8.879485164187255 15.84903705850363 2.1949786989055218 1 0 1
2149 1 12.366941757196585 16.210508842803122 1.991225521628308 1 -1 1
1094 3 12.434999407933052 16.761624865447285 4.335897085389318 -2 1 0
732 1 16.46327857222386 14.701036779577022 2.5762798855632014 2 0 1
481 2 16.804529272688814 12.747354449905203 2.5663432487079705 0 0 -1
62 2 17.338281709181206 16.7880257060668 2.2163956163737657 0 -1 0
1394 3 14.424827106979855 16.214946389612965 2.2330322614187486 0 1 0
712 1 16.982395813393428 17.200641026455013 3.8571974876626696 -1 0 0
743 1 16.24508568903526 17.754761715200733 0.9269722660124562 0 -1 1
720 1 1.129255698459782 14.351146999368803 41.61466829106416 2 0 -1
1826 1 19.197975903141835 15.952403065890838 1.9893754547744542 -1 0 1
1897 3 20.849220213112915 17.993351657576575 2.4306664258665696 -1 1 2
837 1 4.105297849559205 18.204906090631326 1.993376178349361 1 1 1
223 1 6.81146544198629 17.70999042936059 2.497546964682897 0 0 1
1495 3 5.200150927029436 20.7510810753409 0.8931393170105336 2 0 -1
1433 1 5.394600969240477 20.53945707519009 2.980408968648363 1 0 1
2 1 5.212376771912689 18.8451524181009 42.939513626306514 1 -1 -1
1251 2 9.795368803875698 17.22575409842582 1.1517818055469309 1 0 2
1671 2 9.500404697608369 22.027156082411516 3.9015238587721472 1 0 1
7 1 8.590844098575667 20.41262207689561 3.4152903158173302 -1 0 0
2199 3 8.455415994414592 21.98247339713848 0.5655621520992332 0 -2 1
2104 1 12.446340930372651 19.828508878252325 1.110292628479622 0 0 1
1139 1 13.678006038036743 21.311147727457893 3.63301058055031 -1 1 0
1195 3 14.482261822512275 19.312751917214683 1.0954644797175055 -1 0 -1
126 1 14.213798491157645 18.604095226927306 4.162006184410254 3 0 0
1736 1 16.014821418091643 20.734053763590445 1.3996486026272383 0 0 1
162 2 15.538792597302079 21.193004785557406 3.564937955773218 1 -2 -1
2256 2 17.506072945920028 21.84180632530762 5.351585158762204 -1 -1 0
2055 2 16.724889880624392 19.287607958819333 2.521252932829281 0 0 0
2146 1 18.54253825920814 19.52168346483098 42.05168935885029 1 0 -1
2310 1 15.780936733009492 20.454437538371046 41.719457036648976 0 1 1
1369 2 19.41457019203337 19.34252440188593 0.6192022033705363 -2 0 0
536 1 18.567211905091664 18.761096170022796 2.0155410529361713 1 0 0
613 1 21.239893512496202 18.332139647163814 0.16897784370568766 -2 -2 0
758 2 19.07835521356075 17.834596573417503 41.2527843681153 0 -1 -2
1774 2 1.7438512966387063 21.806044200364667 0.8593193344718866 -1 1 1
1020 1 1.3729901579709747 23.453786811843802 0.7946967769887812 1 0 0
1469 2 0.38873687496303844 23.322942239468954 42.46643510658578 0 1 -1
117 1 1.6421440815036492 24.670504248276224 3.8926018455791307 0 -1 -1
1244 1 4.212315562821741 24.159028753966066 41.947289429144966 -1 -1 -1
2335 1 3.7022904575460163 22.4327534164174 1.9092815974796682 2 -1 2
1053 2 4.432730854152499 23.509246826209917 0.9217009261163183 1 1 0
1128 1 4.873176628910777 24.660013548824402 2.504560616577724 1 1 0
490 2 6.9201470856683915 24.0701273655894 3.5936602610056294 -2 -1 0
2021 1 6.503564707610208 22.746489681061444 0.3355936713199323 0 -1 1
520 1 7.923290347829668 23.15033112332481 2.5403732961084273 1 0 0
408 1 11.024709028420522 22.799005024630365 2.727036892271664 0 0 0
256 2 11.245690511009773 23.91470076132612 0.6128927011248533 1 -1 0
1703 1 9.543744164518294 24.59561181243527 0.42091256006238004 0 1 0
2189 2 7.722599595303697 24.364254535949648 0.8323195923195871 -1 0 0
1565 2 12.91995831730896 22.556545782274956 2.208401999604959 1 2 2
1804 1 14.670123891252452 23.582982900512526 2.3380783951012067 0 0 1
302 1 18.10680747068384 22.316189651428708 42.42673759833669 1 -1 -1
696 3 16.29033633867542 24.682291837522254 3.222235222076521 -1 -1 1
589 2 17.280561816801487 20.791339515090534 42.93014889830153 1 0 -1
879 2 1.4021744455387906 18.595124413658155 42.61561886792947 0 0 1
417 1 19.6909717554538 21.240500587612637 1.2565396575956438 1 0 0
49 1 20.483089314164957 24.316253333240944 42.71576417766526 1 0 -1
913 1 19.999003669859444 23.981699162178362 2.662773297905021 -2 0 0
2197 3 0.1856382276404049 25.36637762905078 1.2437448278325707 2 0 0
2393 3 2.8457789863707625 27.820296155665233 2.9787574099859158 -2 0 1
443 1 0.9932825897320432 28.552147118923607 3.7101864906700475 1 0 1
2262 2 5.914135821648531 25.981682454248418 2.1428854277108393 0 -1 0
637 1 5.511355595108734 27.704865041224096 2.2312364453715676 1 -1 0
1156 2 9.520537207616036 26.486486995871253 2.988299664641521 2 -1 1
454 2 9.305885790423009 29.19732125701609 2.2587459744954406 0 1 -1
624 1 9.690768542666163 27.65441186138462 1.4863629224431225 0 0 0
741 1 9.829791328720685 25.003638807484563 3.624939910742564 0 0 0
846 1 7.688767927858088 25.92363440924924 2.587135942941611 1 -1 -1
2264 2 12.024832868743335 24.751995335649138 3.833796517069679 -1 -1 0
27 1 12.193684751367321 25.170403768548105 1.4232464358565167 -1 -1 1
765 2 13.865063272738892 25.07423977445878 1.5086113734976259 1 0 1
399 3 12.142370443418644 27.49924663587976 1.9110923882111195 1 0 0
2193 3 14.135556047243366 28.416409670063956 42.63815006459676 1 -1 0
1257 2 12.780684669982817 25.714595088385973 42.22524006247947 -1 1 -1
1721 1 14.653975292968957 26.61692257224252 1.5509246639508172 -1 0 0
2307 1 17.4102721618158 24.54354315117806 1.0717964164527143 -2 1 0
1043 1 20.196830954299173 26.863796661833856 0.9512111247788534 0 -1 0
1157 2 18.809849911322633 25.725933510075862 1.2880328317190581 -1 0 0
1591 3 17.791115265929044 28.51929825356471 1.8008979089308972 2 0 1
455 2 20.977463008284737 28.109397121547193 3.1602259413590343 0 -1 -1
321 1 0.5246418548214478 30.579820176294103 1.7055283943920758 1 -1 0
689 2 1.8662945120712344 30.17330057816182 2.7517272198530773 0 1 -1
1539 1 3.2290620434226187 29.19602549111923 1.3092705739567134 0 0 1
1253 2 2.9141729501500118 0.07550199747831811 0.8279547221921173 0 -1 1
990 2 4.5161888780614445 28.61350884462737 0.49484405260835906 0 -1 0
1672 2 7.084866656792521 30.832067679960502 0.33276294150825775 -1 -1 0
1448 1 7.459144813310503 29.391873251312752 2.8501697640219845 2 -1 0
1095 3 4.713372495738595 30.50324435285416 2.656546793242005 2 -1 0
1117 1 6.060373147356256 29.524341899132942 42.88851503095707 1 0 -1
627 1 9.55719273762417 30.585009612853213 0.5482641037458937 0 -1 0
980 2 10.379647891846917 31.33417815557794 1.8686704168108008 0 -1 0
910 1 8.831712665255132 0.00590919410380053 3.122225156749846 -2 0 1
1412 1 13.2950753584777 31.37689069555402 3.9744598758816143 -2 0 0
1713 1 11.139320287621468 29.833772063163384 2.6559278946495963 0 0 1
2058 2 12.507294937750201 30.57817907146912 2.6607656967882303 -1 0 1
301 1 12.91076125717333 30.30223031675265 42.52025439271331 0 0 -1
20 1 13.930635914560392 29.44497482040169 2.1904740961093303 -1 0 -1
649 1 15.969928104916887 30.337629382837576 42.71918466062918 -1 -1 -1
1695 3 17.555551721383125 31.698900721871407 1.6913347318785383 2 0 1
444 1 16.61054581770289 29.650365021578178 2.9053846035897584 -1 0 0
963 2 20.0752008981077 30.342463627051142 1.33103004022818 1 0 0
1886 2 19.853960776019612 30.443003022349906 3.878340122428261 0 -1 2
2244 1 19.59386868102046 29.145928693922105 2.50544141398737 -1 0 0
2013 1 18.8471221823589 31.682969798823336 0.09071447446580833 -2 0 1
1474 2 1.1218293827528567 3.075564985588363 4.427379902372153 0 1 0
92 3 3.6243499242164448 1.7082710520994893 3.4485319360105633 -1 -1 0
1840 1 2.059642641097845 0.31001889584751774 6.660256075561306 -1 0 1
1876 2 6.969654739273799 0.23897028511852814 3.0959908294204666 -2 0 2
415 1 8.366736014238604 3.8698417573559127 4.772101772743237 -1 2 1
919 1 6.3422148241397105 31.374421345530916 4.629269807729318 2 -1 0
512 1 8.196567436725166 2.87169223300905 7.357959593969308 0 2 0
1659 2 8.87030954684434 1.235663703305987 7.722959824582877 2 0 0
2321 1 8.775875181288374 1.1222028396434074 5.502765673086635 0 0 1
2396 3 10.895890575018688 2.7909765168258165 6.430909718324652 0 0 0
1647 1 11.167867069239064 1.91164472820719 4.558061959576495 0 1 1
2159 2 11.897509040472388 3.5566706362899567 3.9497443062117843 1 0 1
220 1 11.608806066625014 4.796370068930013 5.252881455265362 -1 1 0
192 3 20.467992424906704 1.3800912094081539 3.613021699402364 -1 1 0
1415 1 15.634978416197956 1.3381535959217739 6.566881304754634 1 0 1
1296 3 15.264998564880278 0.5396049984220875 4.236045184406704 -1 -1 1
2044 1 16.585056155317897 2.2347726553676406 3.289742451988417 -3 0 0
46 1 20.70059401203403 3.274185009591858 5.102946611758383 -1 0 0
2198 3 0.6504494780614372 1.8882583389046488 7.387019832090531 0 0 0
1270 2 20.584736911389015 4.96399336705717 6.20507921993118 -1 1 0
740 1 18.288878456400237 3.518229757191794 8.376973496195406 2 0 0
747 1 19.788511228635823 31.815794730698013 2.53605544488162 1 0 0
519 1 1.9663762849657493 3.0939508884275986 5.897595674802248 1 2 0
524 1 4.5859599129217985 3.0163549938215035 4.728972409913267 0 1 0
1853 2 5.287527908633554 6.229704310770872 5.7667670622155836 -1 2 1
831 1 3.2406073965178552 5.517437506909822 5.699315933175561 -1 1 0
681 2 1.9033039503883606 7.040043623126444 4.843917667767384 4 -1 0
342 1 6.465811110826904 5.2407351787263865 7.108524766637697 -1 -1 0
1065 2 7.715417500405874 5.224369927110432 5.808854416354207 0 1 0
709 1 6.957221236145935 8.2698410749513 5.759606353053677 0 -1 0
578 2 6.494731264395817 3.0964734325859427 6.694197637728162 2 1 -2
2345 1 9.404224943678745 6.463622508842396 3.8630349422394756 0 0 0
966 2 9.153751110845537 4.863443122332234 3.760524317452956 2 1 0
1265 2 9.145388718747288 7.895229562394676 6.116180834200936 -1 1 1
1513 1 9.040508385086211 6.221276308638194 6.661027103124753 2 0 0
1250 1 15.3982089320785 4.153383373761281 6.252096007643235 -1 0 0
1067 2 14.016751996881323 6.005728603977578 3.5347972492449236 0 1 1
1761 2 13.456549409596123 4.616479234652473 6.434788707165262 0 1 -1
798 3 16.93428414551888 4.923320346262762 5.444010016092319 1 0 0
1709 1 16.997709224078452 7.290192103795394 4.787973307618143 0 1 1
433 1 18.44631125528483 5.095771964914988 3.968303747387873 -1 1 0
964 2 1.65965086358636 4.821512508199622 6.888673901751921 0 2 -1
1190 2 18.849940690246594 7.323673129285617 5.423761667190692 0 2 0
902 1 19.80601203244356 6.333246995059647 6.710944487320677 -1 -1 0
572 2 4.923217548844484 7.590906735406307 2.9147211314243777 1 0 0
2087 2 2.5975576949659804 9.405427408440172 4.201554764792295 -1 0 0
1833 1 3.938200498366945 10.316712900807223 5.128998991738284 0 1 1
686 2 3.8794128311669396 9.912865842260262 7.332858032153915 2 0 0
1619 1 4.285952414996376 7.875353832687903 6.19929955909278 1 1 1
2375 2 6.914719640515967 9.511120747132459 6.920203658752489 -2 -1 1
814 1 5.334933859570604 9.586157245622905 8.171603590582738 0 1 0
2226 1 5.717093384323596 9.184869054770516 3.425234702714932 -1 0 2
240 1 8.988865194332803 10.729097789285992 4.789447959513567 -1 -1 1
154 2 11.270445963907168 7.03503156505223 4.458650632566676 1 0 -1
905 1 11.001593761397611 8.149947391788526 6.026536533568263 0 0 0
280 2 13.681926528376904 10.248844986751923 4.77649961049081 -1 -1 1
2002 1 12.626401657089586 10.260686026338997 6.0315121735227875 0 0 0
360 2 12.870844593867382 8.495137058076311 6.34404106403783 0 -2 0
1577 2 10.585229826863717 10.500437502923605 6.618588965946663 0 0 0
1301 1 13.091804188423918 7.553480414566239 4.552138397315255 0 0 0
1463 2 15.323777968333916 8.170537801961144 4.433484125356326 1 0 0
1106 1 15.975299029995153 9.77901194457387 4.235647398827336 -1 1 0
1870 2 14.889151992730524 10.44361889634891 7.3149711273336555 1 -1 1
474 2 1.1080916480575118 5.6732254405580695 2.609196571298478 -1 -1 -1
1236 1 0.986357240333678 8.760876059213011 5.174656785202248 2 -1 -1
967 2 20.52928069990117 9.69418072093131 5.9210035746789975 -2 -1 0
1 1 18.544363307091242 8.910471085710597 6.932418177704291 1 1 0
1098 3 2.2313269760231935 13.944823250732583 5.572366040225964 -1 1 0
1023 1 2.2266072609337004 15.335066998082768 4.024521037815895 1 0 1
2144 1 19.861075553042763 14.88442171874918 8.331513665773276 -2 0 1
1350 1 4.732518809849498 13.891803346980593 5.455857107315483 -1 -1 0
1973 2 4.451711362750273 12.051702170873533 5.6260282404102995 1 -1 0
955 2 5.228360888610448 9.101061391501304 5.490631289186261 1 0 0
2122 1 6.28960563149261 12.391089623663614 3.5721261639329507 1 1 0
1628 1 6.123914507997013 11.16768391897376 5.971960954010373 0 1 1
568 2 7.355382643279103 11.780604137453043 4.973025839295391 2 1 -1
671 2 9.593076258395616 16.78862418392771 3.900640460117724 1 -2 0
2190 2 7.135175871730637 13.293009274904328 7.506275538539381 0 0 1
1559 2 10.132295343429764 13.215876592111858 5.46732591844519 0 0 0
2070 2 13.93292249350135 13.73404498664069 5.085935940031974 -3 0 1
227 1 14.58855173340029 12.013380244517343 5.361568022802098 0 0 0
2322 1 10.81615107491323 12.304653215987198 7.0116877161986935 1 0 0
914 1 17.097370439784456 12.826406718437548 4.2810571257663135 -2 0 1
1266 2 16.20691542468724 11.337757065332813 5.077951588897094 -1 1 1
947 1 16.442708376928717 11.32139724566209 6.983448989287724 0 -1 -1
1953 2 18.42074683075762 11.489699019946679 3.819455287902901 1 0 1
861 2 0.4606175356139503 12.06007155783257 4.744717085402843 1 0 -1
1707 1 19.235409607363167 11.025101143589175 5.3153362903168455 1 0 0
514 1 0.26054340365455714 13.160854499117493 6.177549012300816 1 0 0
1009 1 18.896143170516204 14.40465594032436 5.836884084164109 -1 1 0
284 2 18.218616217764804 10.917585205666361 6.682508877489475 0 -1 0
1499 3 2.544670136791954 17.728081237891168 5.344727195944028 0 -1 0
829 1 1.2865118926615047 15.697147759972944 7.044597259425746 1 0 0
2267 2 3.6269411774444924 14.301171183425952 3.1857301577601063 -1 1 1
1439 1 6.467569063681561 16.147492157217833 5.5977686075186455 0 -1 0
1668 2 6.168449657949798 17.12286530987726 4.160177805403703 1 0 0
2049 1 4.772823387849783 18.137408773376276 5.0205142527555 1 0 0
1551 2 5.213264455112105 17.4750875215733 6.6617683560090875 3 1 -1
1954 2 8.246157321312582 18.785024914260145 2.367794930289997 2 0 1
1032 1 8.10825133744975 13.423744665440756 5.4877199533079795 0 -1 0
1031 1 10.794782483097864 15.355501272687755 4.8048287017669935 0 0 0
413 1 8.405932117495714 17.415840364048247 5.014727536765846 -1 0 0
1227 1 11.67204767089885 18.174463161534046 5.6659537897905805 -1 -1 1
2294 3 10.968087428478045 16.1586793991842 6.719074808412338 -1 1 1
203 1 14.260650965918009 15.998499823541067 5.087510547924703 1 1 1
4 1 14.11836586601882 17.583777907909248 7.7173136733237655 -1 1 0
1743 1 15.859370584870828 14.515463226432832 6.826753468726723 0 0 1
23 1 16.746124423137868 18.03563273959644 6.764719062980555 0 0 1
1670 2 15.589966979379543 17.267053378255273 4.7216941949861235 -3 0 0
888 2 14.258179749679027 15.733419421424973 7.178717272198358 -1 0 0
422 1 20.951776145767017 16.48396095949095 4.253363220026517 0 0 1
1582 2 20.78044510935336 15.232416667540896 5.582849787757423 1 -1 1
396 3 16.87858849427216 14.691080254978894 4.9699022429590896 0 1 0
265 2 2.6753946501314347 19.646012183999744 1.9831070356059954 1 1 1
1917 1 1.8080147196508087 18.46757031861952 3.3362467917192093 3 -1 0
2377 2 0.9507602954962648 20.175761026631765 3.9083864543598708 1 2 0
1806 1 1.4332062187993881 19.189833117703564 6.302755713746926 -3 0 1
264 2 4.193432750679936 19.385151962156424 3.596573560184693 0 -1 0
130 1 3.1972783112312353 20.64323318251281 4.334955976736788 1 0 0
427 1 6.789513356476315 20.543463226161613 5.88295817272168 2 1 0
194 3 9.365654855684344 19.11570711810015 5.171854574858531 2 0 0
2278 2 6.8062484598252375 20.93191975920625 4.1177631264074765 -1 0 0
1199 3 12.165116974589958 19.423273246073606 3.37793740626327 0 1 0
1610 1 11.903628484727761 20.636090453765373 5.608549597481017 1 1 1
2200 3 13.485845117903422 19.250378389296326 6.192679578786089 -2 -1 1
1834 1 16.982671495255115 22.702217263961114 3.8870669189701763 -2 -1 1
542 1 17.288899260333036 20.21353763317973 4.136801198042911 0 0 -1
1075 2 17.46741986168063 19.678877475410882 6.068899004588673 -2 0 1
2358 2 14.352425071448707 23.01687117164423 7.964394868647556 -1 0 1
2239 1 20.700409496640873 19.544846119034602 4.298967514627645 -4 0 1
1299 3 19.06665525753814 17.747536470104333 4.655145493256142 -1 -2 0
1318 1 0.7136333068502185 21.171438991526763 2.592570477118628 1 -1 1
1777 2 20.325905638871433 20.257614391267637 5.8388924659152455 0 0 0
652 2 3.8468439541439277 24.88299159088595 5.764296570266319 0 0 1
104 1 1.259155981654577 26.63239020126856 6.244366501309222 1 0 0
453 2 4.370216255759597 22.249920041002795 3.582179804037703 0 0 0
1771 2 5.116957665358866 21.041359108351603 5.986365793509618 3 0 1
1861 2 3.305249005578742 24.915651916202076 3.218295940060342 0 -1 1
1224 1 5.280356548463871 22.976679347172325 5.426507448721977 1 1 0
2374 2 9.7911123439818 24.018028042953908 2.444284158653845 -1 0 1
143 1 9.504698986085737 22.37872705448751 6.001696340545212 0 -1 0
267 2 9.099411480435343 24.429861185496925 6.252264068715387 0 0 0
594 3 11.486611765028478 25.735342587586405 8.59795081955576 0 1 0
201 1 12.9901665643818 23.69938585801141 5.016854528696456 0 1 0
80 2 13.385461212410444 21.7582194042221 5.114922948519415 -2 0 0
2024 1 14.867846332690773 22.08802481294757 6.280553427024356 -2 1 1
100 3 13.134033399762169 26.189814043692007 5.916737240150618 0 0 0
2112 1 19.347984153763626 21.903536960150866 4.836343211081319 0 0 0
1188 2 14.721970235345244 24.073934545101647 5.401765378219145 -2 1 0
1057 2 18.663262078807858 23.607131914295795 4.158812491841015 -1 1 0
2323 1 14.951109845643643 25.71052547672266 4.570595484825897 2 1 1
392 3 0.8401633592214676 22.914017968098356 3.423674595369609 0 -1 0
1515 1 18.358853440318253 24.958159399014686 5.025313978476334 -1 0 1
962 2 0.8075266394090105 25.892577510043665 4.616641268850669 -1 -1 -1
1186 2 3.8796166386515485 27.823343722363465 5.4569759739723604 1 -1 0
1719 1 20.593355843265794 26.731015102454347 4.144480680709421 -1 0 1
937 1 4.165615513425502 29.221365852810873 4.281265242309811 2 1 0
232 1 3.7406975005509784 26.135842991707396 4.648777703143513 2 -1 -1
2249 1 7.39901869837597 24.81824603895766 5.102250457356277 1 0 1
52 2 6.397553168961305 23.998545731590838 6.452704355777407 -1 -1 0
1327 1 6.208155058622217 28.57059765418621 5.545056325472688 0 -2 1
1255 2 7.380390576618592 26.41339613258013 5.761114476762123 0 0 0
1825 1 9.61361502695459 27.90221127903033 3.9644192798927804 1 -2 1
1751 2 10.340335798791381 27.513419397914213 5.858508184888465 0 0 1
1543 1 11.086739003005308 25.950428802705982 6.526795920465107 1 -1 0
241 1 12.40015802992292 26.620812549355495 3.8821544817092803 -1 0 0
2174 2 12.24052240711316 28.665455866875774 7.910850213850167 2 -1 1
1340 1 11.38402474957102 28.721174614120788 6.279482911645414 2 -1 0
915 1 12.149215939941495 30.6215543485958 8.451190318324779 -1 -1 0
1595 3 14.969478253962869 27.770608548683935 3.6857357645343325 0 -1 -1
821 1 16.599786332791425 28.110441609944242 5.582315580316389 -1 -1 1
2383 2 15.551244846551866 26.274999728225474 6.543157883922625 0 1 1
380 2 18.286276898526886 28.313104480014427 6.892885877572338 0 -2 0
855 2 18.760325607302693 26.454083533822732 4.156123286114037 0 0 -1
247 1 17.87744032091051 26.468543078071153 2.6888811598660842 0 0 0
322 1 19.27229148857528 26.76607180431213 7.480483999723934 0 -1 0
286 2 1.8261445640549916 28.179273630015025 7.3286216032865195 -1 -1 0
1242 1 2.8286005119935496 31.669192030381655 3.127589538558907 1 -1 1
858 2 2.036458144565956 31.97673416356547 5.008169171291711 1 -1 0
2179 2 0.8047984675485159 30.96397734572192 6.938942023331564 0 0 2
1557 2 5.988092274412476 28.223896117231153 3.7828966781208426 1 0 0
1550 1 4.774532966856049 31.01930953186219 7.202637166702756 0 0 1
2064 2 7.4022464963367005 0.0924405118516134 5.902727454927268 -1 0 0
1863 2 5.152829593054939 30.590606699886283 5.573531891734011 0 0 0
2376 2 8.06883035830248 30.70444114252904 3.7890161128191955 0 0 0
1568 2 11.807016403637718 28.236873945572484 4.62685784799907 1 -1 -1
2180 2 8.03420033127713 28.82813446252073 5.649440083665228 0 0 1
1402 1 8.138581159937319 30.708186205950597 6.28280030079081 0 0 0
2052 2 10.226374253046973 0.35328039520439874 5.007971990510745 -1 0 2
683 2 14.98038448909908 30.409809502399156 3.1912811536198316 2 0 0
33 1 13.901508564115007 28.69516431907127 5.119823126616663 1 -1 0
1185 2 12.958014340573994 30.40378068919618 5.425260603465587 2 -1 0
2266 2 16.569665649498667 29.544414129293898 4.630406569579273 1 0 0
118 1 15.580972356255552 30.94333280787279 5.265999460417159 0 -1 1
714 1 18.23223844252056 30.013259926699124 7.391875083760919 0 -1 -1
93 3 16.735506577318983 31.846179903506105 7.378464998014457 1 -1 0
1529 1 18.761899344353463 0.3785583668628887 6.272793502486695 2 1 0
1284 2 19.438656024369987 31.11485546837871 6.603638175626144 0 -1 0
204 1 18.995126004660737 29.3857639850322 5.224508439723267 -1 0 0
1907 1 0.10045567563200564 31.250554745883154 5.267619047730028 0 -1 1
2056 2 3.8244990131196737 3.4828120306254484 6.655476935368239 1 1 1
16 1 2.2019464810739704 2.195504848097237 9.722372628349754 -2 1 1
468 2 3.7880496417312117 2.935598699789612 10.008920555758982 4 0 -1
595 3 6.083989916655496 1.5452170714710618 9.269900975318059 1 0 -2
2228 1 10.437182270609945 1.580829009823856 8.429525433628717 0 2 1
1838 1 7.1187867765912705 0.19624963699135323 7.8063312561552145 -2 0 1
1781 2 7.204164453802147 5.832136007490019 11.406560557529062 0 -1 0
1818 1 10.507179372155818 4.950315852523979 8.742453389979907 0 0 1
2069 2 15.467555614118819 2.7486560576876937 4.854973855531666 -2 0 1
1399 3 11.671685179778466 3.141233581342592 9.28349374955256 0 -2 1
105 1 12.869320951950804 2.5451259198371163 7.5038197993660996 0 0 0
1549 1 16.286242345533417 2.7953537018828607 9.263401839027154 0 0 0
2387 2 14.917421902711688 2.388322359232546 7.86190522400593 -1 -1 0
865 2 15.441229617393578 31.918199879480156 10.100553563483968 0 1 0
876 2 19.271726932201773 2.1236219702859644 6.602587722429272 -1 0 0
1115 1 17.300155699219722 32.176910588422906 9.388301055320822 -2 1 0
2068 2 20.61992991281553 0.6762743725383319 9.359240802156261 0 1 1
127 1 20.126337445278704 1.8888400439124002 8.153858565298831 1 -1 0
825 1 3.338768795114348 4.8153080405483175 8.083221946904883 0 -1 0
258 2 0.8847017301204808 3.796191861355911 9.814016054668244 1 1 -1
812 1 2.9125377352548645 8.093136630424466 10.918011166052246 0 -1 0
35 1 2.6704271021231705 4.567767699447312 10.827404878303533 -2 1 0
18 1 5.683465479546875 3.6465351991340875 10.61508383688031 -1 1 0
935 1 4.950608261843308 6.961222595439372 9.258571515354417 0 2 0
155 2 5.17504285696214 5.181454935860426 8.662207567459834 2 0 0
1368 2 4.581395123612791 8.664615649376817 9.788336135451095 0 -1 0
541 1 7.655978095832886 5.576866730043026 9.478232009814258 -1 2 0