FLiNa to FNa ratio: 1

100 atoms 
0  bonds
0  angles0  dihedrals
0  impropers

3 atom type
0  bond types
0  angle types
0  dihedral types
0  improper types

0.0 11.141809158231762 xlo xhi
0.0 11.141809158231762 ylo yhi
0.0 11.141809158231762 zlo zhi

Masses

1 18.998
2 6.941
2 22.99

Atoms

1 1 36.35 -236.538 101.046
2 1 -105.907 121.105 162.435
3 1 -24.405 104.698 -28.195
4 1 8.073 158.431 113.161
5 1 -110.034 230.908 -24.053
6 1 -11.875 275.798 76.194
7 1 -193.971 250.126 -81.863
8 1 -11.686 171.358 59.256
9 1 84.986 -40.873 8.557
10 1 123.947 57.941 -38.209
11 1 65.164 -53.419 53.191
12 1 153.305 323.667 38.917
13 1 -91.829 67.342 -148.395
14 1 -10.589 6.455 111.212
15 1 80.752 4.258 -46.736
16 1 193.161 71.512 84.828
17 1 5.649 209.453 77.499
18 1 183.857 -54.824 -11.291
19 1 -59.947 -149.113 -23.154
20 1 103.137 -16.832 4.748
21 1 21.559 32.024 82.542
22 1 294.136 -84.846 -135.801
23 1 163.944 154.851 286.522
24 1 -15.338 276.879 19.766
25 1 301.918 51.201 16.11 
26 1 127.906 152.079 170.93 
27 1 -44.407 -84.742 -1.275
28 1 131.275 -7.032 4.764
29 1 63.473 86.416 150.626
30 1 77.289 120.93 142.701
31 1 -29.181 7.576 172.777
32 1 -24.523 -44.803 -59.707
33 1 74.638 5.18 -138.055
34 1 -81.188 -2.646 70.723
35 1 128.302 -33.642 274.049
36 1 165.094 -30.174 -164.198
37 1 102.004 -62.015 -7.853
38 1 190.673 -22.187 62.616
39 1 85.055 284.67 169.918
40 1 -100.127 -67.924 9.764
41 1 50.252 36.555 -55.89 
42 1 220.169 -53.36 36.606
43 1 -23.358 -23.819 35.668
44 1 87.068 -76.877 75.721
45 1 127.573 209.974 -7.854
46 1 241.672 126.42 27.937
47 1 30.325 207.327 131.545
48 1 22.387 -104.543 -238.068
49 1 -1.878 118.596 70.394
50 1 42.947 111.525 251.83 
51 3 104.504 84.942 0.877
52 3 24.035 -47.981 -10.06 
53 3 308.2 115.865 23.743
54 3 -178.914 247.528 -190.8 
55 3 247.677 134.976 -116.731
56 3 -73.619 -123.697 110.896
57 3 26.047 16.196 -81.192
58 3 -41.663 91.756 -96.254
59 3 -7.578 235.938 113.965
60 3 4.494 159.496 -181.555
61 3 265.399 -86.96 132.623
62 3 -34.283 0.814 -122.708
63 3 -10.37 81.698 33.823
64 3 84.03 321.599 233.338
65 3 -104.925 124.238 141.204
66 3 -70.224 -19.997 -46.565
67 3 -7.626 187.812 -180.389
68 3 -105.628 -49.748 270.048
69 3 -36.834 -62.705 -68.004
70 3 176.972 -45.259 -150.707
71 3 -63.728 176.163 119.949
72 3 -144.097 172.825 209.385
73 3 -28.179 28.958 187.042
74 3 -38.956 122.397 95.526
75 3 38.253 147.98 324.665
76 3 102.629 -119.954 191.931
77 3 -1.665 104.071 89.835
78 3 111.051 33.545 -86.175
79 3 26.747 -206.573 -22.192
80 3 38.504 -82.073 132.209
81 3 98.183 120.875 154.208
82 3 67.742 -68.002 199.908
83 3 374.664 254.893 -201.882
84 3 -4.049 105.912 17.26 
85 3 21.776 100.388 120.21 
86 3 281.999 -10.784 88.921
87 3 -60.107 -160.278 45.815
88 3 1.239 181.878 357.462
89 3 22.888 200.727 208.721
90 3 -204.1 321.99 22.95 
91 3 11.548 14.758 348.466
92 3 62.599 341.771 248.079
93 3 204.783 93.264 -43.619
94 3 -72.296 -76.643 -83.257
95 3 23.7 -24.001 171.944
96 3 229.711 36.513 -1.216
97 3 81.029 307.81 141.158
98 3 193.784 -352.441 400.305
99 3 62.107 269.502 93.695
100 3 115.337 96.488 63.301