LAMMPS data file via write_data, version 29 Sep 2021, timestep = 450000

2400 atoms
3 atom types

0 22.283618316463524 xlo xhi
0 33.42542747469528 ylo yhi
0 44.56723663292705 zlo zhi

Masses

1 18.998403163
2 6.938
3 22.989769

Atoms # atomic

57 3 2.039717666061851 2.959450365233639 0.29411786285707875 0 0 0
7 1 3.160690406511907 3.2579633572104987 3.038027838662379 0 0 0
402 1 0.6225721971154248 1.095434641750903 2.144925564380349 0 1 0
54 3 4.647442143697527 1.4317138461507515 2.0803520912646336 0 0 0
22 1 5.753552406519346 3.216635129817346 1.3149692598124936 0 0 0
94 3 7.310860229707889 3.6474777243478766 3.108814235568308 0 0 0
493 3 7.365333747128585 0.08627945339035271 2.7635440247040752 0 1 0
1828 1 8.727144835673865 1.7882072006817331 2.2726237590571463 0 0 1
1872 3 10.127255425893093 3.6141437417178985 1.3156998231533932 0 0 1
73 3 10.154956249410944 0.33953073843879455 0.9877074459675137 0 0 0
58 3 7.362417101230149 1.7615328153133405 0.4405343001690648 0 0 0
144 1 11.636540761679397 2.085402143764472 0.2553194157660482 0 0 0
590 3 12.849462164253604 1.9270727067286484 2.1303248818225757 0 1 0
132 1 11.464194594775556 3.7269476377257176 3.1813120688565517 0 0 0
502 1 11.891243696277549 0.41645370932863407 3.248052708726852 0 1 0
2306 1 14.70266435414981 0.5072307004523521 1.1664738409715318 0 1 1
2339 1 17.392296337789524 2.663006573433573 2.732705706340932 0 1 1
551 3 15.536615370020678 2.45692199993599 0.43603196186013954 0 1 0
195 3 16.029094122874625 0.6732271613549627 3.0294975733875744 0 0 0
581 3 18.67889241634383 0.8653836794768289 1.5140396182570823 0 1 0
173 3 20.97431791968171 2.7018480606775475 2.944901134892216 0 0 0
107 1 19.65738186592241 2.638720189981044 0.459151997760012 0 0 0
509 1 19.876641043794635 0.7344543518228971 3.225077470772328 0 1 0
35 1 2.63054604184206 6.202820260026866 2.9498612827625226 0 0 0
171 3 1.1329826749378207 6.1288613870736075 0.8822175578734055 1 0 0
179 3 1.4903148700901143 4.3895034695070425 3.442838340228488 1 0 0
1845 1 2.7811489859880867 4.853687434108408 0.10314189656137883 0 0 1
105 1 21.935840828443517 4.3331142598649945 1.8830918034432151 0 0 0
62 3 4.179260162977737 4.912064886610115 2.210269524811996 0 0 0
46 1 5.564454504329375 6.414393849553925 1.3478491640463006 0 0 0
70 3 6.871746585924159 6.716787673962116 3.489370102871671 0 0 0
67 3 6.754876651285898 4.9677720221025305 0.44719523723811005 0 0 0
25 1 8.42536076208879 5.145214531082519 2.2550227177617557 0 0 0
75 3 9.60144186709645 7.006145310134782 1.3848353305123025 0 0 0
10 1 10.901567336598617 6.801789316857823 3.3271391275722153 0 0 0
5 1 10.923386317093634 5.291351794198657 0.23438019138358124 0 0 0
135 1 14.140153704988062 4.271237864759751 1.410159466907493 0 0 0
79 3 12.333063120820915 5.650335016455039 2.121794962121473 0 0 0
1945 1 13.804274375681915 7.202693267173212 2.0807967612787097 0 0 1
154 3 15.43932386842797 3.8953285654441183 3.1758265491914885 0 0 0
167 3 15.408290279041417 5.975823400758043 1.2164201691568963 0 0 0
122 1 16.47080099530632 5.559047886487565 2.81995541032445 0 0 0
170 3 17.674791586861716 7.329590628500337 1.9221172453029072 0 0 0
157 3 15.240691651385742 7.285224179997068 3.982568137439509 0 0 0
158 3 18.24705838430881 4.2559801442794525 1.6238616412645557 0 0 0
138 1 19.054779023012124 6.007541408732193 0.8740230124010278 0 0 0
175 3 20.938895679079742 5.752739386142194 3.1506658108917587 0 0 0
125 1 19.704325170604832 4.279353595228481 3.758040963343476 0 0 0
51 3 1.0835659228999936 9.395615485683997 1.3678081240894746 0 0 0
2 1 2.4191144640230173 9.864241605944846 3.3569579903319644 0 0 0
247 1 2.420066158393001 7.977299724461641 0.662218744156424 0 0 0
1806 1 21.914625717616687 7.403751535729766 2.256874122899515 -1 0 1
232 1 2.2584850372174263 11.321874888961158 0.508872555648217 0 0 0
60 3 4.0768109734540605 7.995355074777699 2.2828833416713463 0 0 0
207 1 5.063386917688315 9.943971078112847 1.4817825185439482 0 0 0
65 3 6.882503308516218 8.064840195370463 0.4124330148192989 0 0 0
98 3 6.666074156987211 10.060961519941745 3.2881468432184784 0 0 0
23 1 8.088272363673887 8.209675858504959 2.448386411345655 0 0 0
93 3 9.490827374065342 10.342894361604369 1.4916656853074604 0 0 0
141 1 10.645498576262627 8.703293545039354 0.3446077986558571 0 0 0
102 1 13.403790224901295 10.649479480824802 1.7043819447065287 0 0 0
188 3 12.27407298043049 8.602011814260624 2.7758585134978078 0 0 0
166 3 14.675073973483961 10.505373160375203 3.830794984864852 0 0 0
199 3 14.808807668940238 9.01658792222352 0.9894850839043353 0 0 0
146 1 16.271936800344193 9.027930684117845 2.8959420323370337 0 0 0
373 3 17.6097249596221 10.709529577736678 1.6815064476507238 0 0 0
108 1 16.3758814731935 7.520012487260554 44.56667109160759 0 0 -1
244 1 19.21713840331266 9.228346641873248 1.0819439743117505 -1 0 0
193 3 20.37475776606027 9.148661571533198 2.9154733413360585 0 0 0
41 1 21.72873565525989 10.91218721659095 2.459697373007345 -1 0 0
379 3 20.50023160083417 11.003510683449552 0.055089911775765395 0 0 0
289 3 0.7824129618409476 12.95824741540181 1.8276241081863245 0 0 0
222 1 2.316114826019255 12.882532337627849 3.2614270477424716 0 0 0
303 1 1.840730290337162 14.635925225779946 0.4247537703366525 1 0 0
267 3 3.1905165749990094 14.750933334335155 2.268056185102947 0 0 0
295 3 3.7177404379618486 11.273553049756062 2.6713275367619795 0 0 0
273 3 6.214997171066037 11.727218402269123 0.7627507781828738 0 0 0
225 1 4.892173315828891 13.419236005193069 1.6109805744530403 0 0 0
262 3 6.106330560719842 13.478006958208523 3.5057571204617495 0 0 0
24 1 7.619641160527621 11.865966289535912 2.55614973931651 0 0 0
279 3 8.898181836888746 13.80575742254742 1.9927900069319318 0 0 0
344 1 10.731724522771652 12.025783795070078 0.7439258380093169 0 0 0
396 3 11.895971272577302 11.862138708246315 2.6864646202614937 0 0 0
332 1 13.123085457068566 13.720285409482189 1.7642846663959657 0 0 0
2168 3 14.483584061567287 12.41502583820214 0.7227060026648331 0 0 1
259 3 14.33041799234442 13.790952465673467 3.7699100291938445 0 0 0
2174 3 11.774813136452336 13.662712514368854 44.22383576575219 0 0 0
315 1 15.799142826650057 12.374327460036364 2.720069685409553 0 0 0
362 3 17.363308250632176 14.41757688877945 2.2530970194739153 0 0 0
305 1 18.812187470824686 12.582675540890378 1.0917047707562777 0 0 0
235 1 21.655049711245226 14.48493333970003 2.1094429291421104 -1 0 0
2172 3 20.01434020293664 14.243751540595358 0.41831177324897945 0 0 1
2184 3 20.407726622389507 12.567438200737827 3.1138774402195635 0 0 1
447 1 1.7884758229394317 18.025821228486315 0.5057847253815612 0 0 0
260 3 0.24751970704852783 16.385444817187476 1.5411729143608226 0 0 0
266 3 3.2278709945357993 18.031530077757626 2.541588433678287 0 0 0
246 1 1.9582059153431715 16.390562030065723 3.094253734039861 0 0 0
275 3 5.96563520758987 15.01030768477172 0.8464241178953916 0 0 0
208 1 4.507487041997421 16.54202380224431 1.661870250315906 0 0 0
270 3 5.964678299279596 17.950327531844575 0.9488441672275088 0 0 0
223 1 7.548058968292585 15.0073144115236 2.9171224940909735 0 0 0
230 1 7.223181620407687 18.189548427067333 2.8478281952419016 0 0 0
238 1 10.12323640728918 15.41849194876608 0.8866989006884289 0 0 0
265 3 8.70337808884037 16.947840325969896 2.1302665349374803 0 0 0
388 3 11.561672666033953 18.56117735463489 3.2259756112541287 0 0 0
300 3 11.468813321726621 15.176605715473869 2.5982760727566268 0 0 0
335 1 12.640940187457351 17.005541524403363 2.147599381899222 0 0 0
271 3 14.15367876266568 15.572880971892936 0.9529864093942886 0 0 0
319 1 15.633956699656288 15.583711319350746 2.60826462115195 0 0 0
367 3 17.294279319255786 17.291699864005118 2.2997555440672657 0 0 0
308 1 18.732025311192547 15.972473091034903 1.530730529572011 0 0 0
310 1 21.391899020097103 17.716801031883566 2.5972449683697634 0 0 0
2169 3 20.03565407151263 17.896067607446103 0.6860154082756011 0 0 1
257 3 20.171314166692664 15.77361981157988 3.563359485962028 -1 0 0
202 1 1.306749622496948 21.362380853225392 0.684680698585554 0 0 0
255 3 2.837262448859166 21.601253248065873 2.717249957703748 0 0 0
241 1 1.6270930449697172 19.68056689800299 3.522797843121375 0 0 0
224 1 4.600182109227512 19.65403689746957 1.6157347818412733 0 0 0
495 3 5.765330499944613 21.52500277415251 1.0088744395272757 0 0 0
407 1 6.696867448001582 21.53479296833298 2.951692331890668 0 0 0
209 1 7.494802596939634 20.044220866656843 44.557398655618854 0 0 -1
203 1 10.053745513251108 18.468152873945755 1.0584866130225339 0 0 0
293 3 8.667509670474237 19.982888757136784 1.8108107516887795 0 0 0
532 1 9.799939313228256 21.865950797130882 1.3426646332105474 0 0 0
390 3 11.144086202725438 20.29966563647355 0.4374809341339418 0 0 0
596 3 10.973776905136452 21.972375976554112 3.036155788351562 0 0 0
360 3 14.077451188167522 18.825791890932436 1.3719281895191198 0 0 0
341 1 12.63403339387627 20.261557186141136 2.1553614785571202 0 0 0
351 3 13.649001746961012 22.07777797834811 1.7353709016749164 0 0 0
370 3 16.59894037594972 20.624060648480143 2.560843818317274 0 0 0
547 1 15.343214235054484 20.717794049217904 0.6958296944024678 0 0 0
346 1 15.308695009512574 18.769657215204127 3.317162528799976 0 0 0
338 1 18.24526502601421 19.180576394461184 1.2545991917118342 0 0 0
507 1 17.812643740723725 22.642043322329325 1.2391595255485353 0 0 0
288 3 0.2566035043306073 19.678064102523006 1.8123096613345702 0 0 0
2163 3 19.403861097120725 21.3585295949405 0.7651588694900858 0 0 1
309 1 20.666815268888584 20.97542193643463 2.7665736887737307 0 0 0
381 3 19.76370166304026 19.29496749365485 3.400389680672593 0 0 0
437 1 0.8705896891913664 24.527393256060662 1.0378642380154322 0 0 0
454 3 2.501474457737064 24.9874958425221 2.843435130606091 0 0 0
2359 3 2.642268051220001 23.164322620847763 0.1697514979717453 1 0 1
496 3 21.936160828763214 22.90340068724412 1.5710918929648885 -1 0 0
415 1 3.8249974488325433 23.354134298786175 2.0005785260287565 0 0 0
458 3 5.503503896237227 24.940232334382433 1.3408994891073307 0 0 0
423 1 6.883373978402514 24.93009452580131 3.3373135861237957 0 0 0
425 1 6.754361789910227 23.303242741008233 0.41378821709633934 0 0 0
456 3 8.151593510575198 23.3119447333279 2.6213742434944525 0 0 0
405 1 9.416279295918152 25.194778886712125 1.4536125818976589 0 0 0
479 3 10.965830184971102 25.298096758960774 3.4085000703894863 0 0 0
2376 3 11.156205601816488 23.812209593668353 0.7385261906877432 0 0 1
544 1 12.266754966899605 23.736289756298504 2.584903472262906 0 0 0
589 3 13.600411641621452 25.471071413657825 1.8602872169758609 0 0 0
537 1 12.402499986245456 25.515163000651672 44.2135448116222 0 0 -1
517 1 14.8746269709276 24.189274440719494 0.631354540866146 0 0 0
558 3 16.354896973576505 23.737512996343032 2.506498513909699 0 0 0
2301 1 17.99407554112266 25.785136526903823 1.8743641548826055 0 0 1
302 1 15.23854527665079 21.847376860268177 4.098204286945411 0 0 0
2372 3 19.30953403825307 24.46887444318286 0.7856232171384904 0 0 1
540 1 20.4374265053231 24.131369289054568 2.75347042632386 0 0 0
432 1 20.802455391606756 22.819102812254084 44.247166432315545 -1 0 -1
573 3 19.30267288521636 22.422649034991327 3.7882219410486013 0 0 0
435 1 1.156064293465354 28.094546973349676 1.2368867120894875 0 0 0
489 3 2.2390001756579103 26.346390559502304 0.24845304447507893 0 0 0
457 3 2.480509256852006 28.159982521087148 3.45568274362622 0 0 0
412 1 3.752260314983177 29.96706169306677 2.878760429579396 0 0 0
460 3 2.4917477979902616 29.58031827624359 0.6016820889967819 0 0 0
422 1 4.138429084814052 26.358040865998433 2.427690419673724 0 0 0
467 3 5.452720692042694 28.437152043329842 1.426525193433119 0 0 0
2201 1 6.840749792593723 26.902900193752885 0.5282078980379916 0 0 1
408 1 6.446001532387096 28.403911277030318 3.449806304568299 0 0 0
475 3 8.07914483377653 26.728703675138476 2.5094449763161055 0 0 0
438 1 9.431650663812947 28.723323991220404 1.648714907230457 0 0 0
471 3 11.248432528357611 27.1005643469425 0.769061815704758 0 0 0
499 3 8.0593833949657 28.942993863795746 44.390920831313956 0 0 -1
588 3 10.895114033630431 28.709075475244298 3.645084299723143 0 0 0
535 1 12.055405185155855 26.731153242964893 2.6616623325735334 0 0 0
560 3 13.520343859711648 28.541702935009432 1.8434539521956346 0 0 0
403 1 11.997806520483456 29.063954273621718 44.46426281423885 0 0 -1
552 3 16.40263502765513 25.86916471313502 44.56118395266862 0 0 -1
2345 1 15.137721594631682 27.27374691329291 1.0107188353494565 0 0 1
523 1 17.658416485115026 29.239547552674885 2.436574215316449 0 0 0
562 3 16.65123572645839 27.358297259350394 2.6506632559829795 0 0 0
579 3 21.757255590255923 26.042056843717745 2.0049915188649474 0 0 0
575 3 19.034779276354413 27.540165355946794 1.2033591233105085 0 0 0
510 1 20.293140016591625 27.386113647081693 3.1648471036156205 0 0 0
488 3 21.878664371875658 29.511006738247605 2.6477340032204446 -1 0 0
538 1 20.295397900083845 29.592238839810772 0.4089702472048523 0 0 0
451 3 2.11075944988504 33.2916392695391 1.039897919854336 0 0 0
441 1 0.5336242212924867 31.503880013116927 1.5349731628343044 0 0 0
15 1 3.6137639173441354 33.000208158192976 3.0660786461696423 0 -1 0
466 3 2.2489370660348174 31.244705231394317 3.916299262785096 0 0 0
2245 1 6.343210171044786 30.351890855292947 0.6747495582165535 0 0 1
47 1 6.185916551220789 33.31295138936097 0.942383571519197 0 -1 0
2283 3 4.688076530360208 31.369648594090993 1.657465087641349 0 0 1
424 1 6.200150715962301 31.773349317712036 3.953399083357775 0 0 0
481 3 10.422905835664563 30.507659747476975 0.9107304885647226 0 0 0
470 3 7.973211370359955 30.545739635801922 2.834463007375891 0 0 0
409 1 9.156855846137592 32.03487200800867 1.7949047695407703 0 0 0
566 3 10.291570334255672 31.92514972479739 3.7597332882653305 0 0 0
541 1 11.914681213673141 30.5860853663571 3.093446393771569 0 0 0
2383 3 13.412938130556633 32.26888430878896 1.9370315489693781 0 0 1
546 1 14.788710059440126 30.667174493499452 1.230759084187885 0 0 0
2216 1 11.954295418840474 32.205460300876105 0.2139539928522042 0 0 1
524 1 17.45884772742255 32.398393838091195 2.221640832510318 0 0 0
598 3 16.163784882318947 30.88022998043325 3.039851559444624 0 0 0
599 3 16.026311561895167 32.32108472341718 0.22683449124503596 0 0 0
565 3 18.690658823660673 30.995308786256313 1.592471246295575 0 0 0
490 3 21.43748352326745 32.74398212917335 2.416147715102471 -1 0 0
2316 1 20.016995603919565 32.899237039085286 0.6703487439976711 0 0 1
530 1 20.49071147880966 31.09662388358875 3.533949344404069 0 0 0
159 3 1.9015280002576538 1.3418742494404465 4.028945767355761 1 0 0
593 3 1.874171504188556 3.164647572102069 7.267841212347426 1 1 0
43 1 3.3182610086820215 1.2668356317832423 5.810031141658084 0 0 0
32 1 0.4419846636269176 2.795272427259845 4.7247825742184695 0 0 0
40 1 5.9687279276838625 1.444546752954478 4.0466402266615376 0 0 0
74 3 4.6289469610329075 3.2165217360930276 4.798411730946891 0 0 0
42 1 5.705980304150109 3.2092737460921095 7.265593175494357 0 0 0
196 3 10.123781155626506 1.5857653910778808 3.86997895869675 0 0 0
59 3 7.134169024862491 1.2536684720506304 5.822653066681988 0 0 0
114 1 8.301583274520421 3.2917325320346547 5.092320821064605 0 0 0
174 3 9.613655563920052 3.261758478329508 6.651014898253154 0 0 0
555 3 9.922893293223803 0.016768007904013622 6.694392779200103 0 1 0
149 1 11.382612189477937 1.7466598352590244 5.888066033167401 0 0 0
115 1 14.607916625800813 2.0402283834046075 4.154679808478585 0 0 0
520 1 14.383295486727906 0.3166497523148484 7.157701189766751 0 1 0
111 1 14.283641163831554 3.2812345268521934 6.802766971707052 0 0 0
197 3 13.341485934115711 0.3435339716972278 5.366889530695411 0 0 0
194 3 15.86691758483525 2.2227041822626683 5.970673862048098 0 0 0
513 1 17.403267100914096 0.3930595620548195 5.238728758114095 0 1 0
570 3 18.666208472265296 2.354834935263571 4.489116003509998 0 1 0
184 3 18.281835689757422 0.40438574138479 7.338128505381118 0 0 0
140 1 19.959014158992925 2.3486442234518017 6.469636363057927 0 0 0
96 3 21.677207138544638 0.8755956421731208 5.245645221784694 -1 0 0
19 1 3.2850440764321585 5.00883671964688 6.082217716200467 0 0 0
200 3 1.56675602015307 6.024232903432746 6.42914460167947 1 0 0
64 3 4.263112352159261 6.701345233111465 5.287043908422464 0 0 0
12 1 5.548786213038673 5.222307767166871 4.220658446044315 0 0 0
78 3 6.538853253580812 4.983412216402905 6.298130026778288 0 0 0
18 1 5.463599532697119 6.575178592852684 7.279447548926372 0 0 0
56 3 9.820302309448818 5.065260641313719 4.020996572174588 0 0 0
27 1 8.26350679518584 6.4707691553715785 5.298616755982719 0 0 0
164 3 12.925658880137668 3.387262229932702 4.842463280384417 0 0 0
118 1 11.242437670445566 4.986009414244456 6.0733117599258435 0 0 0
119 1 13.93433777437021 5.168045999901546 4.8554508749704475 0 0 0
100 3 12.353273976606017 6.91297678756164 5.3541145689117196 0 0 0
112 1 13.763186114928573 7.0765820703535125 7.349490492232054 0 0 0
127 1 17.420494794746098 3.7211246286822415 5.613565797891955 0 0 0
182 3 15.672913503941862 4.979130683205227 6.4124702767735835 0 0 0
162 3 18.508699929020164 5.681986102980491 4.830859023759649 0 0 0
147 1 16.707688369455745 7.287045673441822 5.6354301145640076 0 0 0
123 1 19.154073888629362 7.302231303775242 3.7777070602152736 0 0 0
110 1 0.12108320093926285 6.055655946094193 4.96078676045625 1 0 0
156 3 21.131787664862067 3.939531569383881 5.994187683681009 0 0 0
130 1 19.667282928767698 5.615458164319709 6.617332658874039 0 0 0
165 3 21.00373422580583 7.429372995669987 6.363424202050904 0 0 0
88 3 1.315233507434495 7.633118042309025 3.9186388362767444 0 0 0
26 1 2.765568110712823 8.054803231334585 6.064858603160501 0 0 0
192 3 1.0195644285614334 9.524682267707997 7.349049656307722 1 0 0
66 3 0.93582716781806 10.935986407588185 4.243939265151053 0 0 0
55 3 3.703404443730906 9.812503787121289 5.327675082433408 0 0 0
82 3 6.820459409085748 8.636207459324543 5.829129702494777 0 0 0
20 1 5.478346334613739 8.39309663501658 4.154679290002102 0 0 0
11 1 5.19866900468652 10.06099947865184 7.100509613002868 0 0 0
30 1 10.817926774754058 10.33669564312564 3.551342729986655 0 0 0
31 1 7.8563575259110365 10.335706571375507 5.3191113980992295 0 0 0
53 3 9.15890817511919 8.072638340101276 4.182737212447672 0 0 0
63 3 9.412338427237556 9.793006876431981 7.154097325505454 0 0 0
36 1 10.625539092584233 8.073006872581654 5.9785556433373035 0 0 0
85 3 12.03156096424412 10.295490667884343 5.705440202774437 0 0 0
126 1 13.345565931712732 8.468076710983322 4.559102634137846 0 0 0
180 3 15.28250177146723 8.548395915920276 6.777675185361028 0 0 0
120 1 16.079623749453575 10.658487459448374 5.491581906101361 0 0 0
198 3 17.711304766221275 9.225013794626756 4.58281510284102 0 0 0
109 1 0.01615869755406819 9.03656535501471 5.307182380326832 1 0 0
124 1 19.206139216920427 10.67725815285549 3.851266001878738 0 0 0
131 1 19.40659989318559 8.876632401951241 7.1240485300073395 0 0 0
185 3 20.78861016991265 10.625406982766192 5.701365236249747 0 0 0
233 1 1.908054232431591 11.234350213193512 6.2265969836041455 0 0 0
214 1 1.9050402500359587 14.690761425597563 6.263593948756545 0 0 0
371 3 0.909809535644247 14.2740532529876 4.139426595647838 1 0 0
296 3 3.740771043247621 13.162172332799331 5.237053629055871 0 0 0
387 3 0.7780889773889226 12.708362480208661 7.282553704089119 1 0 0
294 3 6.48611176068188 11.71407222687475 6.431387124284572 0 0 0
215 1 5.071894306196023 11.532081646593696 4.271532739560874 0 0 0
249 1 4.968704381487496 12.93314533178505 7.40143162704211 0 0 0
219 1 4.734678251238893 14.760180987616728 4.355206859936876 0 0 0
337 1 10.153179685265 13.620343277836657 3.749448946258734 0 0 0
227 1 7.651048758213271 13.206421776794944 5.37398123321409 0 0 0
240 1 10.643238139981259 11.642653318662218 6.745170707961998 0 0 0
256 3 8.88830322817804 11.715896768184233 4.166733579287646 0 0 0
284 3 8.81743314964092 13.280007126271103 7.68685330362865 0 0 0
92 3 11.892302019594498 13.081388757217297 5.773652071219125 0 0 0
333 1 13.31851353354169 11.815153111524598 4.58858555014228 0 0 0
155 3 15.13928726632707 12.053841796326282 6.683811391570732 0 0 0
242 1 13.284577729184283 13.28557387559907 7.403568387499024 0 0 0
343 1 15.964372504013335 13.943578358458648 6.249510584264286 0 0 0
394 3 17.323409681716527 12.1672130797895 4.886336105801738 0 0 0
113 1 19.07112275702095 12.2318157496786 7.156111700714142 0 0 0
325 1 18.73034723603917 13.754582339726946 4.1946025200884325 0 0 0
340 1 21.690793151199895 12.759949104387395 4.676908344846081 0 0 0
356 3 20.550954017972384 13.577442386005826 6.4147815298147846 0 0 0
218 1 1.561004640285505 17.78855364713979 6.618850232013595 0 0 0
264 3 3.410081554037917 16.1632384897697 5.440000103040847 0 0 0
353 3 0.1407890610048482 17.742327066894088 4.57320911346625 1 0 0
254 3 5.8597330661424385 16.469063885142553 3.6945527382988326 0 0 0
278 3 6.337309976558436 14.85598406609933 7.136625444256255 0 0 0
282 3 5.871977461904321 17.89860526372727 6.71987399689858 0 0 0
212 1 4.700804653149391 18.062203849779007 4.674628389442025 0 0 0
236 1 10.12113797305132 15.168994904052704 7.239965173637565 0 0 0
287 3 8.671553047830448 15.153557668513184 4.753371580222773 0 0 0
211 1 7.6301648744104575 16.608479370925046 5.642298752928863 0 0 0
210 1 10.065513970147009 17.096397886697616 4.185254136881311 0 0 0
285 3 8.441207922198533 18.658826305592402 5.132478559544501 0 0 0
357 3 14.290170151597069 17.021234506010885 3.9541640354276737 0 0 0
314 1 12.948089114061432 15.272309799890289 4.87388291457821 0 0 0
253 3 11.397313534269422 16.179396517491412 6.019326289440975 0 0 0
364 3 14.293428923867808 15.239866467380075 6.802797967450578 0 0 0
380 3 13.960170731106158 18.44130857713339 6.906633914101995 0 0 0
312 1 15.463149192833548 16.94104654868575 6.453033928494439 0 0 0
354 3 17.2448244318546 15.653465211335966 5.585478479479518 0 0 0
323 1 18.027983929183257 17.422381951413463 4.330275265891335 0 0 0
311 1 18.5515632554406 15.528142905734997 7.332375281918097 0 0 0
365 3 19.92263316336302 17.0583488058587 6.347557896168258 0 0 0
226 1 21.555675859433993 15.887127982624845 5.41554624749711 -1 0 0
280 3 2.9983717454987504 19.460325998564386 5.771341927370263 0 0 0
221 1 1.3884181254859773 20.969787492661794 6.8125053620943925 0 0 0
392 3 0.22082632768777355 21.066863360226627 4.685760440514681 1 0 0
298 3 5.577693002202775 19.797985539245207 3.7157758470975 0 0 0
220 1 4.325470886336225 21.54568852104986 4.78436573792765 0 0 0
291 3 5.373401063718189 21.759830018718805 6.729907606560312 0 0 0
234 1 9.773285391596328 18.65048714658324 7.5326669969759745 0 0 0
231 1 7.096832955313435 19.8779199520323 6.035727074105534 0 0 0
440 1 9.877659412004927 19.841277772193667 4.049453901816653 0 0 0
484 3 8.266001403426829 21.57277710795602 4.948689456697583 0 0 0
216 1 9.758111942569673 21.79152116119543 6.884307891470391 0 0 0
326 1 12.599968105057702 18.74249008437503 4.961423852293482 0 0 0
292 3 10.658618992297681 20.353333175639012 5.936111714444241 0 0 0
366 3 13.70426702573592 20.270469839400988 4.5211941160073446 0 0 0
533 1 12.576896205472186 22.298421568123278 4.960909888147744 0 0 0
355 3 13.788262472529778 21.975593638157218 7.011387322352337 0 0 0
398 3 16.776814448205535 18.934253902634985 5.510291667415712 0 0 0
320 1 15.231589071747281 20.267844684529106 6.509725281098687 0 0 0
331 1 18.173087759905584 18.682512235184795 7.522602555819417 0 0 0
324 1 18.159600650276715 20.764298455124152 4.229709269185003 0 0 0
385 3 19.115646616229533 20.809387700560478 6.660516298262275 0 0 0
330 1 20.837118698518623 19.141094978130248 5.577838619891952 0 0 0
433 1 1.2273269048305675 22.819553069263623 3.632928494503668 0 0 0
277 3 2.599820613839872 22.491529930672584 5.783690065088243 0 0 0
443 1 1.3820223271788723 24.314472278196387 6.72455909588121 0 0 0
464 3 2.6015943215338457 26.113319479264607 5.672626339323238 0 0 0
449 1 4.122229961457688 24.903454841096384 5.012146962905028 0 0 0
494 3 5.38614084323458 23.405042926936208 3.7348208529124216 0 0 0
213 1 6.870708707653456 23.065593000599996 5.797896964691743 0 0 0
478 3 5.476665366923888 24.722667400055162 6.686779862188041 0 0 0
514 1 9.81495955515632 23.296089078115266 4.307133806802038 0 0 0
487 3 8.199819372516535 24.85600044408577 5.572310424580615 0 0 0
459 3 10.943964313605946 23.856010449235054 6.242868401210462 0 0 0
442 1 9.648504727839192 25.19565062228672 7.053149659273475 0 0 0
519 1 12.26319984856812 25.77781384795913 5.481146249810476 0 0 0
554 3 14.055277226695447 23.594826859157305 4.64980704669614 0 0 0
522 1 15.077620932523823 25.00158553252549 3.494676898673807 0 0 0
595 3 16.754343273451557 22.21301822697873 5.644912197614115 0 0 0
515 1 15.427394701562067 23.552931579907 6.619491283668308 0 0 0
525 1 17.904179680109703 23.912443154308786 4.705768274570706 0 0 0
578 3 16.683228165234937 25.420233479092246 5.983132071337243 0 0 0
559 3 21.819905453520033 24.260887277073607 4.785014038978555 0 0 0
594 3 19.11096390888266 25.89771954589038 4.3348477012191715 0 0 0
316 1 20.60536147552766 22.565096568615314 5.6363713693730295 0 0 0
584 3 19.31807134759928 23.87850657382154 6.885248095240804 0 0 0
419 1 1.0665161583227623 26.204044654581192 3.782065305356921 0 0 0
426 1 1.0808719074157884 29.468013642872915 4.378326904790177 0 0 0
414 1 1.1704437482685563 27.70631473248221 6.827705405153956 0 0 0
480 3 2.361040033582966 29.524322043137097 6.67696069509632 0 0 0
418 1 3.9429973131157454 27.737038078625574 5.363493689957877 0 0 0
427 1 6.993279814376758 26.67077008201234 6.18431904412176 0 0 0
462 3 5.4319737337315965 26.62281922453813 4.185913325938043 0 0 0
482 3 4.990186297193385 27.91283890119339 7.2994063684854265 0 0 0
431 1 6.391573995530828 29.744027900119924 6.590144635608622 0 0 0
465 3 7.732660463642342 28.32999075914603 5.182265136055543 0 0 0
410 1 9.365738526423227 27.029237367882686 4.215141740129085 0 0 0
500 3 10.45376102254395 26.96588974744734 6.169744451978227 0 0 0
526 1 14.70078070868166 28.954382903231465 3.605043618537743 0 0 0
557 3 13.805518951887434 26.54882575092755 4.466476928677156 0 0 0
1135 1 11.82488240766507 28.613074909107674 5.643085619402676 0 0 0
548 1 14.938218978791786 27.200298924384175 6.462671847192647 0 0 0
511 1 17.765603134967165 27.35342669148412 4.626420786778454 0 0 0
582 3 16.306946679754457 28.656276630757088 5.525617950274249 0 0 0
527 1 20.54767413321831 25.462774753501925 5.865715775309159 0 0 0
561 3 19.22921175995515 29.214837620629147 4.264549769940495 0 0 0
587 3 19.24177640853226 25.81052171502131 9.602200114331259 0 0 0
600 3 21.33801187232029 27.441335501416862 5.168493146573587 0 0 0
529 1 20.44622076813219 29.36263188506647 6.17246540114002 0 0 0
592 3 2.41198115948349 32.74154033494936 6.747223810047737 1 0 0
420 1 3.4286822524130507 31.274096293844014 5.706447937943153 0 0 0
33 1 0.6414870696845053 32.66908916711165 4.506520316600603 0 -1 0
421 1 1.1652398088628084 31.135706262621827 7.415655197605922 0 0 0
498 3 5.163644091002033 30.04601323292398 4.795652041798087 0 0 0
48 1 5.978391206826017 33.04182433459459 6.808254965101611 0 -1 0
95 3 4.613663437626221 33.26192632108361 4.975944643182405 0 -1 0
491 3 4.90064285366798 30.844908708834343 7.635703176261396 0 0 0
133 1 8.778945891015745 33.15941357124592 4.903224534684863 0 -1 0
485 3 7.913553756088267 31.401944388744482 5.712054537883887 0 0 0
430 1 9.231131884676032 30.069993169394913 4.619768336422936 0 0 0
492 3 10.570324562436921 30.120830527549725 6.287797595561214 0 0 0
413 1 8.800951721374346 31.492683181981104 7.540733298818856 0 0 0
521 1 11.979114651657149 31.913472858229323 6.258506714173119 0 0 0
580 3 13.507818509830745 30.64668940471431 4.7339835518764986 0 0 0
550 1 14.560875208265019 30.47428912697235 6.918045466996704 0 0 0
512 1 14.586150692957618 32.42836701260525 3.9073081076766907 0 0 0
531 1 17.71834946746097 30.769371237565874 4.897722103838127 0 0 0
591 3 16.028886428636266 32.421631677928495 6.140296359545237 0 0 0
585 3 18.59825699204039 32.68519846068567 4.13022516614397 0 0 0
563 3 19.06394025202909 30.593217108174915 6.913799959147554 0 0 0
534 1 20.245035113647496 32.478654046130444 6.4444157829500375 0 0 0
553 3 21.918200805253342 30.804422844006364 5.265706995005455 0 0 0
516 1 0.7889382930253193 1.0352947927135134 7.78197579790741 1 1 0
76 3 1.7404876795569735 0.9305552307833904 9.518801626913275 0 0 0
637 1 3.0854971750680216 2.883822402830324 8.856042759723683 0 0 0
705 1 0.41359468375669173 2.5073068240497665 10.407259464319605 1 0 0
455 3 4.603930146616522 1.3487746868393475 7.704927693631689 0 1 0
28 1 5.822508911702913 0.9420906671940803 9.561734564214952 0 0 0
72 3 7.2752595406798735 3.2497977303323085 8.980137637045097 0 0 0
97 3 4.320721995325286 2.5180104573595066 10.755620923965322 0 0 0
143 1 8.338281919184078 1.0239861539456223 7.746729652200845 0 0 0
673 3 9.9497687705425 1.3663115157580694 9.621335248284028 0 0 0
605 1 8.48449940086004 2.5370526310273016 10.78184502289859 0 0 0
148 1 11.362608199456373 3.1117586210702726 8.885140063158593 0 0 0
178 3 12.735821662101381 1.900104306064383 7.700367032067 0 0 0
707 1 14.297839698454341 1.6534264627071449 9.785796207257096 0 0 0
416 1 11.613548137757993 33.29810956882329 9.028209095217443 0 0 0
142 1 17.035448819936363 2.0679218176926146 8.1075504692132 0 0 0
752 3 15.252649056737098 3.155853441255297 9.157838645123533 0 0 0
168 3 15.938319516388052 0.2599841955865494 8.805448287200479 0 0 0
758 3 18.37659692981809 2.125204290928556 10.379786987224136 0 0 0
172 3 21.230741555762965 2.118948309406669 8.14270031021077 0 0 0
128 1 19.841057932506025 0.4899132056095545 9.038491707704448 0 0 0
136 1 19.808520646830548 3.7443043411534442 9.449158689095011 0 0 0
771 3 1.0516954836574377 4.364341127732581 9.639170578475282 1 0 0
45 1 2.2769184594963026 5.858209095345423 9.124455088425975 0 0 0
14 1 22.17843406305615 4.32969034611979 7.818050729918934 -1 0 0
703 1 21.961713783294392 5.6737211616502226 10.826396356173847 0 0 0
686 3 0.8618657113111116 7.291232973017557 9.922153233147569 0 0 0