LAMMPS (29 Sep 2021 - Update 2)
OMP_NUM_THREADS environment is not set. Defaulting to 1 thread. (src/comm.cpp:98)
  using 1 OpenMP thread(s) per MPI task
Reading data file ...
  orthogonal box = (0.0000000 0.0000000 0.0000000) to (11.651295 11.651295 11.651295)
  1 by 1 by 1 MPI processor grid
WARNING: Atom style in data file differs from currently defined atom style (src/read_data.cpp:516)
  reading atoms ...
  100 atoms
  read_data CPU = 0.001 seconds
Changing box ...
  orthogonal box = (0.0000000 0.0000000 0.0000000) to (11.141809 11.651295 11.651295)
  orthogonal box = (0.0000000 0.0000000 0.0000000) to (11.141809 11.141809 11.651295)
  orthogonal box = (0.0000000 0.0000000 0.0000000) to (11.141809 11.141809 11.141809)
NEQUIP is using device cuda
NequIP Coeff: type 1 is element F
NequIP Coeff: type 2 is element Li
NequIP Coeff: type 3 is element Na
Loading model from FLiNa_f_pyt10.2
Freezing TorchScript model...
Replicating atoms ...
  orthogonal box = (0.0000000 0.0000000 0.0000000) to (22.283618 33.425427 44.567237)
  1 by 1 by 1 MPI processor grid
  2400 atoms
  replicate CPU = 0.001 seconds
WARNING: Using 'neigh_modify every 1 delay 0 check yes' setting during minimization (src/min.cpp:188)
Neighbor list info ...
  update every 1 steps, delay 0 steps, check yes
  max neighbors/atom: 2000, page size: 100000
  master list distance cutoff = 7
  ghost atom cutoff = 7
  binsize = 3.5, bins = 7 10 13
  1 neighbor lists, perpetual/occasional/extra = 1 0 0
  (1) pair nequip, perpetual
      attributes: full, newton off
      pair build: full/bin/atomonly
      stencil: full/bin/3d
      bin: standard
Setting up cg style minimization ...
  Unit style    : metal
  Current step  : 0
Per MPI rank memory allocation (min/avg/max) = 5.117 | 5.117 | 5.117 Mbytes
Step Temp E_pair E_mol TotEng Press 
       0            0   -6602.9634            0   -6602.9634            0 
       1            0   -6905.3223            0   -6905.3223            0 
       2            0   -7198.0078            0   -7198.0078            0 
       3            0   -7418.8179            0   -7418.8179            0 
       4            0   -7615.3267            0   -7615.3267            0 
       5            0   -7793.0571            0   -7793.0571            0 
       6            0   -7956.9062            0   -7956.9062            0 
       7            0   -8111.5469            0   -8111.5469            0 
       8            0   -8261.0322            0   -8261.0322            0 
       9            0   -8406.7168            0   -8406.7168            0 
      10            0   -8550.1592            0   -8550.1592            0 
      11            0   -8693.4346            0   -8693.4346            0 
      12            0   -8827.6855            0   -8827.6855            0 
      13            0   -8952.4795            0   -8952.4795            0 
      14            0   -9072.2373            0   -9072.2373            0 
      15            0   -9188.4766            0   -9188.4766            0 
      16            0   -9300.4873            0   -9300.4873            0 
      17            0   -9406.3555            0   -9406.3555            0 
      18            0   -9496.6777            0   -9496.6777            0 
      19            0   -9577.2188            0   -9577.2188            0 
      20            0   -9647.2012            0   -9647.2012            0 
      21            0   -9714.5938            0   -9714.5938            0 
      22            0   -9778.4121            0   -9778.4121            0 
      23            0   -9838.4346            0   -9838.4346            0 
      24            0   -9892.0479            0   -9892.0479            0 
      25            0   -9937.7803            0   -9937.7803            0 
      26            0    -9975.375            0    -9975.375            0 
      27            0   -10006.234            0   -10006.234            0 
      28            0   -10032.366            0   -10032.366            0 
      29            0   -10055.208            0   -10055.208            0 
      30            0   -10075.383            0   -10075.383            0 
      31            0   -10093.727            0   -10093.727            0 
      32            0   -10110.367            0   -10110.367            0 
      33            0   -10125.581            0   -10125.581            0 
      34            0   -10140.529            0   -10140.529            0 
      35            0   -10157.239            0   -10157.239            0 
      36            0   -10177.574            0   -10177.574            0 
      37            0   -10199.509            0   -10199.509            0 
      38            0   -10217.578            0   -10217.578            0 
      39            0    -10229.01            0    -10229.01            0 
      40            0   -10238.289            0   -10238.289            0 
      41            0   -10246.667            0   -10246.667            0 
      42            0   -10253.793            0   -10253.793            0 
      43            0   -10261.302            0   -10261.302            0 
      44            0    -10268.17            0    -10268.17            0 
      45            0   -10275.707            0   -10275.707            0 
      46            0   -10284.166            0   -10284.166            0 
      47            0   -10293.398            0   -10293.398            0 
      48            0   -10300.164            0   -10300.164            0 
      49            0   -10306.712            0   -10306.712            0 
      50            0    -10313.11            0    -10313.11            0 
      51            0   -10319.662            0   -10319.662            0 
      52            0   -10325.172            0   -10325.172            0 
      53            0   -10329.495            0   -10329.495            0 
      54            0   -10333.063            0   -10333.063            0 
      55            0   -10336.236            0   -10336.236            0 
      56            0    -10339.44            0    -10339.44            0 
      57            0     -10343.3            0     -10343.3            0 
      58            0    -10346.92            0    -10346.92            0 
      59            0   -10351.145            0   -10351.145            0 
      60            0   -10356.423            0   -10356.423            0 
      61            0   -10361.775            0   -10361.775            0 
      62            0   -10367.367            0   -10367.367            0 
      63            0   -10372.148            0   -10372.148            0 
      64            0    -10376.01            0    -10376.01            0 
      65            0   -10379.529            0   -10379.529            0 
      66            0   -10383.227            0   -10383.227            0 
      67            0   -10385.445            0   -10385.445            0 
      68            0   -10387.592            0   -10387.592            0 
      69            0   -10389.415            0   -10389.415            0 
      70            0   -10390.628            0   -10390.628            0 
      71            0   -10391.438            0   -10391.438            0 
      72            0    -10392.29            0    -10392.29            0 
      73            0   -10393.354            0   -10393.354            0 
      74            0   -10394.511            0   -10394.511            0 
      75            0   -10395.929            0   -10395.929            0 
      76            0   -10397.347            0   -10397.347            0 
      77            0   -10398.756            0   -10398.756            0 
      78            0   -10400.708            0   -10400.708            0 
      79            0   -10402.943            0   -10402.943            0 
      80            0   -10404.939            0   -10404.939            0 
      81            0   -10407.183            0   -10407.183            0 
      82            0   -10409.499            0   -10409.499            0 
      83            0   -10411.642            0   -10411.642            0 
      84            0   -10413.843            0   -10413.843            0 
      85            0   -10415.955            0   -10415.955            0 
      86            0   -10418.555            0   -10418.555            0 
      87            0   -10420.447            0   -10420.447            0 
      88            0   -10421.534            0   -10421.534            0 
      89            0   -10422.284            0   -10422.284            0 
      90            0   -10422.897            0   -10422.897            0 
      91            0   -10423.362            0   -10423.362            0 
      92            0    -10423.82            0    -10423.82            0 
      93            0   -10424.231            0   -10424.231            0 
      94            0   -10424.636            0   -10424.636            0 
      95            0   -10424.968            0   -10424.968            0 
      96            0   -10425.287            0   -10425.287            0 
      97            0   -10425.702            0   -10425.702            0 
      98            0   -10426.144            0   -10426.144            0 
      99            0   -10426.592            0   -10426.592            0 
     100            0   -10427.056            0   -10427.056            0 
     101            0   -10427.653            0   -10427.653            0 
     102            0   -10428.384            0   -10428.384            0 
     103            0   -10429.301            0   -10429.301            0 
     104            0   -10430.241            0   -10430.241            0 
     105            0     -10431.1            0     -10431.1            0 
     106            0   -10432.168            0   -10432.168            0 
     107            0    -10433.08            0    -10433.08            0 
     108            0   -10434.423            0   -10434.423            0 
     109            0   -10436.131            0   -10436.131            0 
     110            0    -10437.51            0    -10437.51            0 
     111            0   -10439.122            0   -10439.122            0 
     112            0   -10440.743            0   -10440.743            0 
     113            0   -10442.187            0   -10442.187            0 
     114            0   -10443.309            0   -10443.309            0 
     115            0   -10444.314            0   -10444.314            0 
     116            0   -10445.531            0   -10445.531            0 
     117            0   -10446.486            0   -10446.486            0 
     118            0    -10447.27            0    -10447.27            0 
     119            0   -10447.916            0   -10447.916            0 
     120            0   -10448.553            0   -10448.553            0 
     121            0   -10449.347            0   -10449.347            0 
     122            0    -10449.94            0    -10449.94            0 
     123            0   -10450.553            0   -10450.553            0 
     124            0   -10451.102            0   -10451.102            0 
     125            0   -10451.672            0   -10451.672            0 
     126            0   -10452.092            0   -10452.092            0 
     127            0   -10452.514            0   -10452.514            0 
     128            0   -10452.927            0   -10452.927            0 
     129            0   -10453.463            0   -10453.463            0 
     130            0   -10453.995            0   -10453.995            0 
     131            0   -10454.473            0   -10454.473            0 
     132            0   -10454.972            0   -10454.972            0 
     133            0   -10455.494            0   -10455.494            0 
     134            0   -10455.949            0   -10455.949            0 
     135            0   -10456.479            0   -10456.479            0 
     136            0   -10456.941            0   -10456.941            0 
     137            0    -10457.45            0    -10457.45            0 
     138            0   -10457.897            0   -10457.897            0 
     139            0   -10458.272            0   -10458.272            0 
     140            0   -10458.636            0   -10458.636            0 
     141            0    -10458.98            0    -10458.98            0 
     142            0   -10459.284            0   -10459.284            0 
     143            0   -10459.577            0   -10459.577            0 
     144            0   -10459.807            0   -10459.807            0 
     145            0   -10460.013            0   -10460.013            0 
     146            0   -10460.235            0   -10460.235            0 
     147            0   -10460.427            0   -10460.427            0 
     148            0   -10460.605            0   -10460.605            0 
     149            0   -10460.764            0   -10460.764            0 
     150            0   -10460.898            0   -10460.898            0 
     151            0   -10461.005            0   -10461.005            0 
     152            0   -10461.115            0   -10461.115            0 
     153            0   -10461.222            0   -10461.222            0 
     154            0   -10461.297            0   -10461.297            0 
     155            0   -10461.404            0   -10461.404            0 
     156            0    -10461.49            0    -10461.49            0 
     157            0   -10461.562            0   -10461.562            0 
     158            0   -10461.626            0   -10461.626            0 
     159            0   -10461.685            0   -10461.685            0 
     160            0   -10461.753            0   -10461.753            0 
     161            0   -10461.814            0   -10461.814            0 
     162            0   -10461.871            0   -10461.871            0 
     163            0   -10461.923            0   -10461.923            0 
     164            0   -10461.977            0   -10461.977            0 
     165            0   -10462.044            0   -10462.044            0 
     166            0   -10462.078            0   -10462.078            0 
     167            0    -10462.14            0    -10462.14            0 
     168            0   -10462.206            0   -10462.206            0 
     169            0    -10462.27            0    -10462.27            0 
     170            0   -10462.351            0   -10462.351            0 
     171            0   -10462.417            0   -10462.417            0 
     172            0   -10462.493            0   -10462.493            0 
     173            0   -10462.557            0   -10462.557            0 
     174            0   -10462.634            0   -10462.634            0 
     175            0   -10462.705            0   -10462.705            0 
     176            0    -10462.78            0    -10462.78            0 
     177            0   -10462.856            0   -10462.856            0 
     178            0   -10462.909            0   -10462.909            0 
     179            0   -10462.951            0   -10462.951            0 
     180            0   -10463.021            0   -10463.021            0 
     181            0   -10463.065            0   -10463.065            0 
     182            0   -10463.108            0   -10463.108            0 
     183            0   -10463.165            0   -10463.165            0 
     184            0   -10463.189            0   -10463.189            0 
     185            0    -10463.22            0    -10463.22            0 
     186            0   -10463.265            0   -10463.265            0 
     187            0   -10463.279            0   -10463.279            0 
     188            0   -10463.327            0   -10463.327            0 
     189            0   -10463.372            0   -10463.372            0 
     190            0   -10463.427            0   -10463.427            0 
     191            0   -10463.482            0   -10463.482            0 
     192            0   -10463.545            0   -10463.545            0 
     193            0   -10463.604            0   -10463.604            0 
     194            0   -10463.665            0   -10463.665            0 
     195            0   -10463.713            0   -10463.713            0 
     196            0   -10463.775            0   -10463.775            0 
     197            0   -10463.813            0   -10463.813            0 
     198            0   -10463.879            0   -10463.879            0 
     199            0   -10463.947            0   -10463.947            0 
     200            0   -10464.034            0   -10464.034            0 
     201            0   -10464.109            0   -10464.109            0 
     202            0   -10464.239            0   -10464.239            0 
     203            0   -10464.354            0   -10464.354            0 
     204            0   -10464.447            0   -10464.447            0 
     205            0    -10464.56            0    -10464.56            0 
     206            0   -10464.692            0   -10464.692            0 
     207            0   -10464.785            0   -10464.785            0 
     208            0   -10464.941            0   -10464.941            0 
     209            0   -10465.104            0   -10465.104            0 
     210            0   -10465.229            0   -10465.229            0 
     211            0   -10465.401            0   -10465.401            0 
     212            0   -10465.572            0   -10465.572            0 
     213            0   -10465.688            0   -10465.688            0 
     214            0   -10465.828            0   -10465.828            0 
     215            0   -10465.944            0   -10465.944            0 
     216            0   -10466.059            0   -10466.059            0 
     217            0   -10466.121            0   -10466.121            0 
     218            0   -10466.187            0   -10466.187            0 
     219            0   -10466.271            0   -10466.271            0 
     220            0   -10466.316            0   -10466.316            0 
     221            0   -10466.387            0   -10466.387            0 
     222            0   -10466.427            0   -10466.427            0 
     223            0   -10466.475            0   -10466.475            0 
     224            0   -10466.524            0   -10466.524            0 
     225            0   -10466.572            0   -10466.572            0 
     226            0   -10466.629            0   -10466.629            0 
     227            0   -10466.679            0   -10466.679            0 
     228            0   -10466.732            0   -10466.732            0 
     229            0   -10466.781            0   -10466.781            0 
     230            0   -10466.843            0   -10466.843            0 
     231            0   -10466.879            0   -10466.879            0 
     232            0   -10466.938            0   -10466.938            0 
     233            0    -10466.99            0    -10466.99            0 
     234            0   -10467.042            0   -10467.042            0 
     235            0    -10467.09            0    -10467.09            0 
     236            0   -10467.144            0   -10467.144            0 
     237            0   -10467.177            0   -10467.177            0 
     238            0   -10467.239            0   -10467.239            0 
     239            0   -10467.284            0   -10467.284            0 
     240            0   -10467.364            0   -10467.364            0 
     241            0   -10467.432            0   -10467.432            0 
     242            0   -10467.501            0   -10467.501            0 
     243            0   -10467.608            0   -10467.608            0 
     244            0   -10467.678            0   -10467.678            0 
     245            0   -10467.778            0   -10467.778            0 
     246            0   -10467.872            0   -10467.872            0 
     247            0    -10467.95            0    -10467.95            0 
     248            0   -10468.026            0   -10468.026            0 
     249            0   -10468.105            0   -10468.105            0 
     250            0   -10468.187            0   -10468.187            0 
     251            0   -10468.286            0   -10468.286            0 
     252            0   -10468.396            0   -10468.396            0 
     253            0   -10468.479            0   -10468.479            0 
     254            0   -10468.577            0   -10468.577            0 
     255            0   -10468.665            0   -10468.665            0 
     256            0   -10468.735            0   -10468.735            0 
     257            0   -10468.827            0   -10468.827            0 
     258            0   -10468.889            0   -10468.889            0 
     259            0   -10468.963            0   -10468.963            0 
     260            0   -10469.021            0   -10469.021            0 
     261            0   -10469.091            0   -10469.091            0 
     262            0   -10469.152            0   -10469.152            0 
     263            0   -10469.211            0   -10469.211            0 
     264            0   -10469.269            0   -10469.269            0 
     265            0   -10469.333            0   -10469.333            0 
     266            0    -10469.39            0    -10469.39            0 
     267            0   -10469.502            0   -10469.502            0 
     268            0   -10469.563            0   -10469.563            0 
     269            0   -10469.636            0   -10469.636            0 
     270            0   -10469.696            0   -10469.696            0 
     271            0   -10469.755            0   -10469.755            0 
     272            0   -10469.795            0   -10469.795            0 
     273            0   -10469.847            0   -10469.847            0 
     274            0   -10469.854            0   -10469.854            0 
     275            0   -10469.899            0   -10469.899            0 
     276            0   -10469.924            0   -10469.924            0 
     277            0   -10469.942            0   -10469.942            0 
     278            0   -10469.983            0   -10469.983            0 
     279            0   -10470.007            0   -10470.007            0 
     280            0   -10470.028            0   -10470.028            0 
     281            0   -10470.061            0   -10470.061            0 
     282            0   -10470.074            0   -10470.074            0 
     283            0   -10470.116            0   -10470.116            0 
     284            0   -10470.146            0   -10470.146            0 
     285            0   -10470.176            0   -10470.176            0 
     286            0    -10470.22            0    -10470.22            0 
     287            0   -10470.278            0   -10470.278            0 
     288            0   -10470.342            0   -10470.342            0 
     289            0   -10470.419            0   -10470.419            0 
     290            0   -10470.496            0   -10470.496            0 
     291            0   -10470.556            0   -10470.556            0 
     292            0   -10470.626            0   -10470.626            0 
     293            0   -10470.688            0   -10470.688            0 
     294            0   -10470.758            0   -10470.758            0 
     295            0   -10470.812            0   -10470.812            0 
     296            0    -10470.88            0    -10470.88            0 
     297            0   -10470.951            0   -10470.951            0 
     298            0   -10471.004            0   -10471.004            0 
     299            0   -10471.102            0   -10471.102            0 
     300            0   -10471.178            0   -10471.178            0 
     301            0   -10471.264            0   -10471.264            0 
     302            0   -10471.372            0   -10471.372            0 
     303            0   -10471.435            0   -10471.435            0 
     304            0   -10471.508            0   -10471.508            0 
     305            0   -10471.567            0   -10471.567            0 
     306            0   -10471.615            0   -10471.615            0 
     307            0   -10471.683            0   -10471.683            0 
     308            0   -10471.742            0   -10471.742            0 
     309            0    -10471.78            0    -10471.78            0 
     310            0    -10471.85            0    -10471.85            0 
     311            0   -10471.885            0   -10471.885            0 
     312            0   -10471.959            0   -10471.959            0 
     313            0   -10472.012            0   -10472.012            0 
     314            0   -10472.089            0   -10472.089            0 
     315            0   -10472.151            0   -10472.151            0 
     316            0   -10472.231            0   -10472.231            0 
     317            0   -10472.294            0   -10472.294            0 
     318            0   -10472.389            0   -10472.389            0 
     319            0   -10472.431            0   -10472.431            0 
     320            0   -10472.517            0   -10472.517            0 
     321            0   -10472.594            0   -10472.594            0 
     322            0   -10472.687            0   -10472.687            0 
     323            0   -10472.779            0   -10472.779            0 
     324            0    -10472.88            0    -10472.88            0 
     325            0   -10472.991            0   -10472.991            0 
     326            0   -10473.087            0   -10473.087            0 
     327            0   -10473.183            0   -10473.183            0 
     328            0   -10473.284            0   -10473.284            0 
     329            0    -10473.34            0    -10473.34            0 
     330            0   -10473.432            0   -10473.432            0 
     331            0   -10473.496            0   -10473.496            0 
     332            0   -10473.564            0   -10473.564            0 
     333            0    -10473.63            0    -10473.63            0 
     334            0   -10473.689            0   -10473.689            0 
     335            0    -10473.75            0    -10473.75            0 
     336            0   -10473.797            0   -10473.797            0 
     337            0   -10473.852            0   -10473.852            0 
     338            0   -10473.893            0   -10473.893            0 
     339            0   -10473.941            0   -10473.941            0 
     340            0   -10473.977            0   -10473.977            0 
     341            0   -10474.036            0   -10474.036            0 
     342            0   -10474.094            0   -10474.094            0 
     343            0   -10474.128            0   -10474.128            0 
     344            0   -10474.189            0   -10474.189            0 
     345            0   -10474.242            0   -10474.242            0 
     346            0   -10474.322            0   -10474.322            0 
     347            0   -10474.401            0   -10474.401            0 
     348            0   -10474.465            0   -10474.465            0 
     349            0   -10474.525            0   -10474.525            0 
     350            0   -10474.574            0   -10474.574            0 
     351            0   -10474.628            0   -10474.628            0 
     352            0   -10474.662            0   -10474.662            0 
     353            0    -10474.73            0    -10474.73            0 
     354            0   -10474.797            0   -10474.797            0 
     355            0   -10474.856            0   -10474.856            0 
     356            0   -10474.931            0   -10474.931            0 
     357            0   -10474.982            0   -10474.982            0 
     358            0   -10475.043            0   -10475.043            0 
     359            0   -10475.112            0   -10475.112            0 
     360            0   -10475.171            0   -10475.171            0 
     361            0   -10475.211            0   -10475.211            0 
     362            0   -10475.245            0   -10475.245            0 
     363            0   -10475.295            0   -10475.295            0 
     364            0   -10475.321            0   -10475.321            0 
     365            0    -10475.35            0    -10475.35            0 
     366            0   -10475.375            0   -10475.375            0 
     367            0   -10475.413            0   -10475.413            0 
     368            0   -10475.454            0   -10475.454            0 
     369            0   -10475.504            0   -10475.504            0 
     370            0    -10475.55            0    -10475.55            0 
     371            0   -10475.614            0   -10475.614            0 
     372            0   -10475.697            0   -10475.697            0 
     373            0   -10475.766            0   -10475.766            0 
     374            0   -10475.852            0   -10475.852            0 
     375            0   -10475.943            0   -10475.943            0 
     376            0   -10476.016            0   -10476.016            0 
     377            0   -10476.097            0   -10476.097            0 
     378            0   -10476.188            0   -10476.188            0 
     379            0   -10476.289            0   -10476.289            0 
     380            0    -10476.39            0    -10476.39            0 
     381            0   -10476.496            0   -10476.496            0 
     382            0   -10476.585            0   -10476.585            0 
     383            0   -10476.675            0   -10476.675            0 
     384            0   -10476.752            0   -10476.752            0 
     385            0   -10476.837            0   -10476.837            0 
     386            0    -10476.93            0    -10476.93            0 
     387            0   -10477.035            0   -10477.035            0 
     388            0   -10477.151            0   -10477.151            0 
     389            0   -10477.257            0   -10477.257            0 
     390            0   -10477.329            0   -10477.329            0 
     391            0   -10477.436            0   -10477.436            0 
     392            0   -10477.517            0   -10477.517            0 
     393            0   -10477.597            0   -10477.597            0 
     394            0   -10477.683            0   -10477.683            0 
     395            0   -10477.744            0   -10477.744            0 
     396            0   -10477.819            0   -10477.819            0 
     397            0   -10477.879            0   -10477.879            0 
     398            0   -10477.956            0   -10477.956            0 
     399            0   -10478.022            0   -10478.022            0 
     400            0    -10478.09            0    -10478.09            0 
     401            0    -10478.14            0    -10478.14            0 
     402            0   -10478.194            0   -10478.194            0 
     403            0   -10478.274            0   -10478.274            0 
     404            0    -10478.32            0    -10478.32            0 
     405            0   -10478.375            0   -10478.375            0 
     406            0   -10478.428            0   -10478.428            0 
     407            0   -10478.463            0   -10478.463            0 
     408            0   -10478.509            0   -10478.509            0 
     409            0    -10478.56            0    -10478.56            0 
     410            0   -10478.612            0   -10478.612            0 
     411            0   -10478.677            0   -10478.677            0 
     412            0    -10478.74            0    -10478.74            0 
     413            0   -10478.798            0   -10478.798            0 
     414            0   -10478.867            0   -10478.867            0 
     415            0   -10478.959            0   -10478.959            0 
     416            0   -10479.035            0   -10479.035            0 
     417            0   -10479.132            0   -10479.132            0 
     418            0   -10479.252            0   -10479.252            0 
     419            0    -10479.35            0    -10479.35            0 
     420            0   -10479.444            0   -10479.444            0 
     421            0    -10479.54            0    -10479.54            0 
     422            0   -10479.601            0   -10479.601            0 
     423            0   -10479.695            0   -10479.695            0 
     424            0   -10479.789            0   -10479.789            0 
     425            0   -10479.864            0   -10479.864            0 
     426            0   -10479.939            0   -10479.939            0 
     427            0   -10480.004            0   -10480.004            0 
     428            0   -10480.088            0   -10480.088            0 
     429            0   -10480.182            0   -10480.182            0 
     430            0   -10480.257            0   -10480.257            0 
     431            0   -10480.378            0   -10480.378            0 
     432            0   -10480.512            0   -10480.512            0 
     433            0    -10480.66            0    -10480.66            0 
     434            0   -10480.789            0   -10480.789            0 
     435            0   -10480.938            0   -10480.938            0 
     436            0   -10481.062            0   -10481.062            0 
     437            0   -10481.198            0   -10481.198            0 
     438            0   -10481.306            0   -10481.306            0 
     439            0   -10481.409            0   -10481.409            0 
     440            0   -10481.529            0   -10481.529            0 
     441            0   -10481.626            0   -10481.626            0 
     442            0    -10481.76            0    -10481.76            0 
     443            0   -10481.895            0   -10481.895            0 
     444            0   -10482.003            0   -10482.003            0 
     445            0   -10482.135            0   -10482.135            0 
     446            0   -10482.231            0   -10482.231            0 
     447            0   -10482.376            0   -10482.376            0 
     448            0   -10482.511            0   -10482.511            0 
     449            0   -10482.616            0   -10482.616            0 
     450            0   -10482.718            0   -10482.718            0 
     451            0    -10482.82            0    -10482.82            0 
     452            0   -10482.936            0   -10482.936            0 
     453            0    -10483.02            0    -10483.02            0 
     454            0   -10483.146            0   -10483.146            0 
     455            0   -10483.267            0   -10483.267            0 
     456            0   -10483.431            0   -10483.431            0 
     457            0   -10483.587            0   -10483.587            0 
     458            0   -10483.751            0   -10483.751            0 
     459            0   -10483.901            0   -10483.901            0 
     460            0   -10484.048            0   -10484.048            0 
     461            0   -10484.182            0   -10484.182            0 
     462            0   -10484.297            0   -10484.297            0 
     463            0   -10484.451            0   -10484.451            0 
     464            0   -10484.591            0   -10484.591            0 
     465            0   -10484.723            0   -10484.723            0 
     466            0    -10484.84            0    -10484.84            0 
     467            0   -10484.993            0   -10484.993            0 
     468            0   -10485.135            0   -10485.135            0 
     469            0   -10485.283            0   -10485.283            0 
     470            0   -10485.389            0   -10485.389            0 
     471            0   -10485.533            0   -10485.533            0 
     472            0   -10485.675            0   -10485.675            0 
     473            0   -10485.792            0   -10485.792            0 
     474            0   -10485.895            0   -10485.895            0 
     475            0   -10486.009            0   -10486.009            0 
     476            0   -10486.114            0   -10486.114            0 
     477            0   -10486.245            0   -10486.245            0 
     478            0   -10486.376            0   -10486.376            0 
     479            0   -10486.487            0   -10486.487            0 
     480            0   -10486.568            0   -10486.568            0 
     481            0   -10486.657            0   -10486.657            0 
     482            0   -10486.754            0   -10486.754            0 
     483            0   -10486.821            0   -10486.821            0 
     484            0   -10486.868            0   -10486.868            0 
     485            0   -10486.934            0   -10486.934            0 
     486            0   -10486.989            0   -10486.989            0 
     487            0   -10487.042            0   -10487.042            0 
     488            0   -10487.122            0   -10487.122            0 
     489            0   -10487.197            0   -10487.197            0 
     490            0   -10487.297            0   -10487.297            0 
     491            0    -10487.42            0    -10487.42            0 
     492            0   -10487.538            0   -10487.538            0 
     493            0   -10487.646            0   -10487.646            0 
     494            0   -10487.765            0   -10487.765            0 
     495            0   -10487.875            0   -10487.875            0 
     496            0   -10487.972            0   -10487.972            0 
     497            0    -10488.08            0    -10488.08            0 
     498            0   -10488.203            0   -10488.203            0 
     499            0    -10488.33            0    -10488.33            0 
     500            0   -10488.398            0   -10488.398            0 
     501            0   -10488.473            0   -10488.473            0 
     502            0   -10488.548            0   -10488.548            0 
     503            0   -10488.599            0   -10488.599            0 
     504            0   -10488.688            0   -10488.688            0 
     505            0   -10488.791            0   -10488.791            0 
     506            0   -10488.876            0   -10488.876            0 
     507            0   -10488.945            0   -10488.945            0 
     508            0   -10488.997            0   -10488.997            0 
     509            0   -10489.073            0   -10489.073            0 
     510            0   -10489.122            0   -10489.122            0 
     511            0   -10489.198            0   -10489.198            0 
     512            0   -10489.249            0   -10489.249            0 
     513            0   -10489.338            0   -10489.338            0 
     514            0   -10489.407            0   -10489.407            0 
     515            0   -10489.463            0   -10489.463            0 
     516            0   -10489.519            0   -10489.519            0 
     517            0   -10489.562            0   -10489.562            0 
     518            0   -10489.575            0   -10489.575            0 
     519            0    -10489.63            0    -10489.63            0 
     520            0   -10489.681            0   -10489.681            0 
     521            0    -10489.72            0    -10489.72            0 
     522            0   -10489.764            0   -10489.764            0 
     523            0   -10489.821            0   -10489.821            0 
     524            0   -10489.896            0   -10489.896            0 
     525            0   -10489.996            0   -10489.996            0 
     526            0   -10490.106            0   -10490.106            0 
     527            0   -10490.213            0   -10490.213            0 
     528            0   -10490.308            0   -10490.308            0 
     529            0   -10490.429            0   -10490.429            0 
     530            0   -10490.521            0   -10490.521            0 
     531            0   -10490.618            0   -10490.618            0 
     532            0   -10490.681            0   -10490.681            0 
     533            0   -10490.753            0   -10490.753            0 
     534            0   -10490.803            0   -10490.803            0 
     535            0   -10490.864            0   -10490.864            0 
     536            0   -10490.913            0   -10490.913            0 
     537            0   -10490.981            0   -10490.981            0 
     538            0   -10491.023            0   -10491.023            0 
     539            0   -10491.063            0   -10491.063            0 
     540            0   -10491.119            0   -10491.119            0 
     541            0   -10491.163            0   -10491.163            0 
     542            0   -10491.214            0   -10491.214            0 
     543            0   -10491.248            0   -10491.248            0 
     544            0   -10491.312            0   -10491.312            0 
     545            0   -10491.393            0   -10491.393            0 
     546            0   -10491.465            0   -10491.465            0 
     547            0   -10491.574            0   -10491.574            0 
     548            0   -10491.677            0   -10491.677            0 
     549            0   -10491.782            0   -10491.782            0 
     550            0   -10491.854            0   -10491.854            0 
     551            0   -10491.945            0   -10491.945            0 
     552            0    -10492.07            0    -10492.07            0 
     553            0   -10492.241            0   -10492.241            0 
     554            0   -10492.344            0   -10492.344            0 
     555            0   -10492.426            0   -10492.426            0 
     556            0   -10492.537            0   -10492.537            0 
     557            0    -10492.65            0    -10492.65            0 
     558            0   -10492.709            0   -10492.709            0 
     559            0   -10492.775            0   -10492.775            0 
     560            0   -10492.857            0   -10492.857            0 
     561            0   -10492.915            0   -10492.915            0 
     562            0   -10492.971            0   -10492.971            0 
     563            0   -10492.995            0   -10492.995            0 
     564            0   -10493.051            0   -10493.051            0 
     565            0   -10493.108            0   -10493.108            0 
     566            0   -10493.164            0   -10493.164            0 
     567            0   -10493.225            0   -10493.225            0 
     568            0   -10493.274            0   -10493.274            0 
     569            0   -10493.312            0   -10493.312            0 
     570            0    -10493.35            0    -10493.35            0 
     571            0   -10493.388            0   -10493.388            0 
     572            0   -10493.397            0   -10493.397            0 
     573            0   -10493.441            0   -10493.441            0 
     574            0   -10493.479            0   -10493.479            0 
     575            0   -10493.537            0   -10493.537            0 
     576            0    -10493.55            0    -10493.55            0 
     577            0   -10493.578            0   -10493.578            0 
     578            0   -10493.605            0   -10493.605            0 
     579            0   -10493.618            0   -10493.618            0 
     580            0   -10493.633            0   -10493.633            0 
     581            0   -10493.656            0   -10493.656            0 
     582            0   -10493.697            0   -10493.697            0 
     583            0   -10493.741            0   -10493.741            0 
     584            0   -10493.761            0   -10493.761            0 
     585            0   -10493.809            0   -10493.809            0 
     586            0   -10493.824            0   -10493.824            0 
     587            0   -10493.866            0   -10493.866            0 
     588            0   -10493.928            0   -10493.928            0 
     589            0   -10493.998            0   -10493.998            0 
     590            0   -10494.065            0   -10494.065            0 
     591            0   -10494.121            0   -10494.121            0 
     592            0   -10494.151            0   -10494.151            0 
     593            0   -10494.185            0   -10494.185            0 
     594            0   -10494.234            0   -10494.234            0 
     595            0    -10494.27            0    -10494.27            0 
     596            0   -10494.315            0   -10494.315            0 
     597            0   -10494.355            0   -10494.355            0 
     598            0   -10494.384            0   -10494.384            0 
     599            0   -10494.408            0   -10494.408            0 
     600            0    -10494.46            0    -10494.46            0 
     601            0   -10494.499            0   -10494.499            0 
     602            0   -10494.535            0   -10494.535            0 
     603            0   -10494.569            0   -10494.569            0 
     604            0   -10494.614            0   -10494.614            0 
     605            0   -10494.673            0   -10494.673            0 
     606            0    -10494.74            0    -10494.74            0 
     607            0   -10494.811            0   -10494.811            0 
     608            0   -10494.901            0   -10494.901            0 
     609            0   -10494.998            0   -10494.998            0 
     610            0   -10495.117            0   -10495.117            0 
     611            0   -10495.182            0   -10495.182            0 
     612            0   -10495.279            0   -10495.279            0 
     613            0   -10495.358            0   -10495.358            0 
     614            0   -10495.432            0   -10495.432            0 
     615            0   -10495.517            0   -10495.517            0 
     616            0   -10495.571            0   -10495.571            0 
     617            0   -10495.657            0   -10495.657            0 
     618            0   -10495.714            0   -10495.714            0 
     619            0   -10495.764            0   -10495.764            0 
     620            0   -10495.823            0   -10495.823            0 
     621            0   -10495.889            0   -10495.889            0 
     622            0   -10495.962            0   -10495.962            0 
     623            0   -10496.064            0   -10496.064            0 
     624            0   -10496.149            0   -10496.149            0 
     625            0   -10496.278            0   -10496.278            0 
     626            0   -10496.397            0   -10496.397            0 
     627            0   -10496.496            0   -10496.496            0 
     628            0   -10496.554            0   -10496.554            0 
     629            0   -10496.612            0   -10496.612            0 
     630            0   -10496.677            0   -10496.677            0 
     631            0   -10496.749            0   -10496.749            0 
     632            0   -10496.787            0   -10496.787            0 
     633            0   -10496.876            0   -10496.876            0 
     634            0   -10496.938            0   -10496.938            0 
     635            0   -10497.049            0   -10497.049            0 
     636            0   -10497.103            0   -10497.103            0 
     637            0   -10497.156            0   -10497.156            0 
     638            0   -10497.196            0   -10497.196            0 
     639            0   -10497.293            0   -10497.293            0 
     640            0   -10497.365            0   -10497.365            0 
     641            0   -10497.437            0   -10497.437            0 
     642            0   -10497.541            0   -10497.541            0 
     643            0   -10497.612            0   -10497.612            0 
     644            0   -10497.697            0   -10497.697            0 
     645            0   -10497.793            0   -10497.793            0 
     646            0   -10497.858            0   -10497.858            0 
     647            0    -10497.93            0    -10497.93            0 
     648            0   -10497.994            0   -10497.994            0 
     649            0   -10498.078            0   -10498.078            0 
     650            0   -10498.158            0   -10498.158            0 
     651            0   -10498.234            0   -10498.234            0 
     652            0   -10498.308            0   -10498.308            0 
     653            0    -10498.42            0    -10498.42            0 
     654            0   -10498.499            0   -10498.499            0 
     655            0   -10498.622            0   -10498.622            0 
     656            0   -10498.751            0   -10498.751            0 
     657            0   -10498.821            0   -10498.821            0 
     658            0   -10498.923            0   -10498.923            0 
     659            0   -10499.003            0   -10499.003            0 
     660            0   -10499.104            0   -10499.104            0 
     661            0   -10499.243            0   -10499.243            0 
     662            0   -10499.394            0   -10499.394            0 
     663            0   -10499.565            0   -10499.565            0 
     664            0    -10499.74            0    -10499.74            0 
     665            0   -10499.872            0   -10499.872            0 
     666            0   -10499.996            0   -10499.996            0 
     667            0   -10500.076            0   -10500.076            0 
     668            0   -10500.142            0   -10500.142            0 
     669            0   -10500.286            0   -10500.286            0 
     670            0   -10500.457            0   -10500.457            0 
     671            0   -10500.611            0   -10500.611            0 
     672            0    -10500.73            0    -10500.73            0 
     673            0   -10500.915            0   -10500.915            0 
     674            0   -10501.058            0   -10501.058            0 
     675            0   -10501.196            0   -10501.196            0 
     676            0   -10501.324            0   -10501.324            0 
     677            0   -10501.402            0   -10501.402            0 
     678            0   -10501.483            0   -10501.483            0 
     679            0   -10501.603            0   -10501.603            0 
     680            0   -10501.705            0   -10501.705            0 
     681            0   -10501.791            0   -10501.791            0 
     682            0   -10501.935            0   -10501.935            0 
     683            0   -10502.064            0   -10502.064            0 
     684            0   -10502.214            0   -10502.214            0 
     685            0   -10502.365            0   -10502.365            0 
     686            0   -10502.516            0   -10502.516            0 
     687            0   -10502.641            0   -10502.641            0 
     688            0   -10502.793            0   -10502.793            0 
     689            0   -10502.896            0   -10502.896            0 
     690            0   -10503.008            0   -10503.008            0 
     691            0   -10503.091            0   -10503.091            0 
     692            0   -10503.165            0   -10503.165            0 
     693            0    -10503.22            0    -10503.22            0 
     694            0   -10503.283            0   -10503.283            0 
     695            0    -10503.33            0    -10503.33            0 
     696            0   -10503.393            0   -10503.393            0 
     697            0   -10503.445            0   -10503.445            0 
     698            0   -10503.502            0   -10503.502            0 
     699            0   -10503.562            0   -10503.562            0 
     700            0   -10503.617            0   -10503.617            0 
     701            0   -10503.672            0   -10503.672            0 
     702            0   -10503.739            0   -10503.739            0 
     703            0   -10503.795            0   -10503.795            0 
     704            0   -10503.876            0   -10503.876            0 
     705            0   -10503.962            0   -10503.962            0 
     706            0   -10504.059            0   -10504.059            0 
     707            0   -10504.177            0   -10504.177            0 
     708            0   -10504.314            0   -10504.314            0 
     709            0   -10504.453            0   -10504.453            0 
     710            0   -10504.555            0   -10504.555            0 
     711            0   -10504.698            0   -10504.698            0 
     712            0   -10504.823            0   -10504.823            0 
     713            0   -10504.931            0   -10504.931            0 
     714            0   -10505.049            0   -10505.049            0 
     715            0   -10505.172            0   -10505.172            0 
     716            0   -10505.278            0   -10505.278            0 
     717            0   -10505.396            0   -10505.396            0 
     718            0   -10505.508            0   -10505.508            0 
     719            0   -10505.636            0   -10505.636            0 
     720            0   -10505.771            0   -10505.771            0 
     721            0    -10505.94            0    -10505.94            0 
     722            0   -10506.128            0   -10506.128            0 
     723            0   -10506.322            0   -10506.322            0 
     724            0   -10506.493            0   -10506.493            0 
     725            0   -10506.634            0   -10506.634            0 
     726            0   -10506.726            0   -10506.726            0 
     727            0   -10506.834            0   -10506.834            0 
     728            0   -10506.917            0   -10506.917            0 
     729            0   -10507.045            0   -10507.045            0 
     730            0    -10507.11            0    -10507.11            0 
     731            0   -10507.185            0   -10507.185            0 
     732            0   -10507.252            0   -10507.252            0 
     733            0    -10507.34            0    -10507.34            0 
     734            0   -10507.387            0   -10507.387            0 
     735            0   -10507.471            0   -10507.471            0 
     736            0   -10507.543            0   -10507.543            0 
     737            0    -10507.58            0    -10507.58            0 
     738            0   -10507.655            0   -10507.655            0 
     739            0   -10507.714            0   -10507.714            0 
     740            0   -10507.779            0   -10507.779            0 
     741            0   -10507.852            0   -10507.852            0 
     742            0   -10507.946            0   -10507.946            0 
     743            0   -10508.017            0   -10508.017            0 
     744            0   -10508.078            0   -10508.078            0 
     745            0   -10508.145            0   -10508.145            0 
     746            0   -10508.232            0   -10508.232            0 
     747            0   -10508.309            0   -10508.309            0 
     748            0   -10508.427            0   -10508.427            0 
     749            0   -10508.513            0   -10508.513            0 
     750            0   -10508.594            0   -10508.594            0 
     751            0   -10508.646            0   -10508.646            0 
     752            0   -10508.726            0   -10508.726            0 
     753            0   -10508.794            0   -10508.794            0 
     754            0   -10508.847            0   -10508.847            0 
     755            0   -10508.896            0   -10508.896            0 
     756            0   -10508.919            0   -10508.919            0 
     757            0   -10508.984            0   -10508.984            0 
     758            0   -10509.058            0   -10509.058            0 
     759            0   -10509.101            0   -10509.101            0 
     760            0   -10509.161            0   -10509.161            0 
     761            0   -10509.206            0   -10509.206            0 
     762            0   -10509.231            0   -10509.231            0 
     763            0    -10509.32            0    -10509.32            0 
     764            0     -10509.4            0     -10509.4            0 
     765            0   -10509.505            0   -10509.505            0 
     766            0   -10509.608            0   -10509.608            0 
     767            0   -10509.716            0   -10509.716            0 
     768            0   -10509.765            0   -10509.765            0 
     769            0   -10509.858            0   -10509.858            0 
     770            0   -10509.982            0   -10509.982            0 
     771            0   -10510.127            0   -10510.127            0 
     772            0   -10510.191            0   -10510.191            0 
     773            0   -10510.267            0   -10510.267            0 
     774            0   -10510.315            0   -10510.315            0 
     775            0   -10510.377            0   -10510.377            0 
     776            0   -10510.404            0   -10510.404            0 
     777            0   -10510.466            0   -10510.466            0 
     778            0   -10510.515            0   -10510.515            0 
     779            0   -10510.555            0   -10510.555            0 
     780            0   -10510.616            0   -10510.616            0 
     781            0   -10510.668            0   -10510.668            0 
     782            0   -10510.722            0   -10510.722            0 
     783            0    -10510.77            0    -10510.77            0 
     784            0   -10510.813            0   -10510.813            0 
     785            0   -10510.865            0   -10510.865            0 
     786            0   -10510.914            0   -10510.914            0 
     787            0   -10510.967            0   -10510.967            0 
     788            0   -10511.019            0   -10511.019            0 
     789            0   -10511.076            0   -10511.076            0 
     790            0   -10511.128            0   -10511.128            0 
     791            0   -10511.187            0   -10511.187            0 
     792            0    -10511.24            0    -10511.24            0 
     793            0   -10511.319            0   -10511.319            0 
     794            0   -10511.364            0   -10511.364            0 
     795            0    -10511.41            0    -10511.41            0 
     796            0   -10511.482            0   -10511.482            0 
     797            0   -10511.545            0   -10511.545            0 
     798            0   -10511.611            0   -10511.611            0 
     799            0   -10511.676            0   -10511.676            0 
     800            0   -10511.778            0   -10511.778            0 
     801            0   -10511.906            0   -10511.906            0 
     802            0   -10512.031            0   -10512.031            0 
     803            0   -10512.122            0   -10512.122            0 
     804            0    -10512.22            0    -10512.22            0 
     805            0   -10512.299            0   -10512.299            0 
     806            0    -10512.37            0    -10512.37            0 
     807            0   -10512.464            0   -10512.464            0 
     808            0   -10512.558            0   -10512.558            0 
     809            0   -10512.637            0   -10512.637            0 
     810            0   -10512.705            0   -10512.705            0 
     811            0   -10512.802            0   -10512.802            0 
     812            0     -10512.9            0     -10512.9            0 
     813            0   -10512.999            0   -10512.999            0 
     814            0   -10513.072            0   -10513.072            0 
     815            0   -10513.144            0   -10513.144            0 
     816            0    -10513.22            0    -10513.22            0 
     817            0   -10513.316            0   -10513.316            0 
     818            0   -10513.393            0   -10513.393            0 
     819            0   -10513.463            0   -10513.463            0 
     820            0    -10513.53            0    -10513.53            0 
     821            0   -10513.634            0   -10513.634            0 
     822            0    -10513.69            0    -10513.69            0 
     823            0    -10513.76            0    -10513.76            0 
     824            0   -10513.836            0   -10513.836            0 
     825            0   -10513.897            0   -10513.897            0 
     826            0   -10513.941            0   -10513.941            0 
     827            0   -10513.986            0   -10513.986            0 
     828            0   -10514.008            0   -10514.008            0 
     829            0   -10514.068            0   -10514.068            0 
     830            0   -10514.113            0   -10514.113            0 
     831            0   -10514.172            0   -10514.172            0 
     832            0    -10514.21            0    -10514.21            0 
     833            0   -10514.259            0   -10514.259            0 
     834            0   -10514.307            0   -10514.307            0 
     835            0   -10514.327            0   -10514.327            0 
     836            0   -10514.385            0   -10514.385            0 
     837            0   -10514.425            0   -10514.425            0 
     838            0   -10514.469            0   -10514.469            0 
     839            0   -10514.516            0   -10514.516            0 
     840            0    -10514.57            0    -10514.57            0 
     841            0   -10514.615            0   -10514.615            0 
     842            0   -10514.652            0   -10514.652            0 
     843            0   -10514.731            0   -10514.731            0 
     844            0   -10514.814            0   -10514.814            0 
     845            0   -10514.893            0   -10514.893            0 
     846            0   -10514.953            0   -10514.953            0 
     847            0   -10515.033            0   -10515.033            0 
     848            0   -10515.062            0   -10515.062            0 
     849            0   -10515.107            0   -10515.107            0 
     850            0   -10515.192            0   -10515.192            0 
     851            0   -10515.276            0   -10515.276            0 
     852            0   -10515.379            0   -10515.379            0 
     853            0   -10515.465            0   -10515.465            0 
     854            0   -10515.539            0   -10515.539            0 
     855            0   -10515.601            0   -10515.601            0 
     856            0   -10515.681            0   -10515.681            0 
     857            0   -10515.748            0   -10515.748            0 
     858            0   -10515.802            0   -10515.802            0 
     859            0   -10515.872            0   -10515.872            0 
     860            0   -10515.923            0   -10515.923            0 
     861            0   -10516.014            0   -10516.014            0 
     862            0   -10516.129            0   -10516.129            0 
     863            0   -10516.215            0   -10516.215            0 
     864            0   -10516.325            0   -10516.325            0 
     865            0   -10516.394            0   -10516.394            0 
     866            0   -10516.459            0   -10516.459            0 
     867            0   -10516.557            0   -10516.557            0 
     868            0   -10516.624            0   -10516.624            0 
     869            0   -10516.666            0   -10516.666            0 
     870            0   -10516.759            0   -10516.759            0 
     871            0   -10516.854            0   -10516.854            0 
     872            0    -10516.95            0    -10516.95            0 
     873            0   -10517.065            0   -10517.065            0 
     874            0   -10517.171            0   -10517.171            0 
     875            0   -10517.271            0   -10517.271            0 
     876            0   -10517.367            0   -10517.367            0 
     877            0   -10517.463            0   -10517.463            0 
     878            0   -10517.562            0   -10517.562            0 
     879            0   -10517.646            0   -10517.646            0 
     880            0   -10517.743            0   -10517.743            0 
     881            0    -10517.85            0    -10517.85            0 
     882            0   -10517.973            0   -10517.973            0 
     883            0   -10518.091            0   -10518.091            0 
     884            0   -10518.214            0   -10518.214            0 
     885            0   -10518.352            0   -10518.352            0 
     886            0   -10518.465            0   -10518.465            0 
     887            0   -10518.543            0   -10518.543            0 
     888            0   -10518.655            0   -10518.655            0 
     889            0   -10518.739            0   -10518.739            0 
     890            0   -10518.836            0   -10518.836            0 
     891            0   -10518.877            0   -10518.877            0 
     892            0   -10518.936            0   -10518.936            0 
     893            0   -10519.048            0   -10519.048            0 
     894            0    -10519.14            0    -10519.14            0 
     895            0   -10519.223            0   -10519.223            0 
     896            0   -10519.293            0   -10519.293            0 
     897            0   -10519.381            0   -10519.381            0 
     898            0   -10519.454            0   -10519.454            0 
     899            0   -10519.531            0   -10519.531            0 
     900            0   -10519.624            0   -10519.624            0 
     901            0   -10519.695            0   -10519.695            0 
     902            0   -10519.771            0   -10519.771            0 
     903            0   -10519.848            0   -10519.848            0 
     904            0   -10519.922            0   -10519.922            0 
     905            0   -10520.031            0   -10520.031            0 
     906            0    -10520.13            0    -10520.13            0 
     907            0   -10520.227            0   -10520.227            0 
     908            0   -10520.356            0   -10520.356            0 
     909            0   -10520.474            0   -10520.474            0 
     910            0    -10520.58            0    -10520.58            0 
     911            0    -10520.67            0    -10520.67            0 
     912            0   -10520.751            0   -10520.751            0 
     913            0   -10520.823            0   -10520.823            0 
     914            0   -10520.885            0   -10520.885            0 
     915            0   -10520.933            0   -10520.933            0 
     916            0   -10521.032            0   -10521.032            0 
     917            0   -10521.073            0   -10521.073            0 
     918            0   -10521.141            0   -10521.141            0 
     919            0   -10521.205            0   -10521.205            0 
     920            0   -10521.252            0   -10521.252            0 
     921            0   -10521.306            0   -10521.306            0 
     922            0   -10521.338            0   -10521.338            0 
     923            0   -10521.382            0   -10521.382            0 
     924            0   -10521.425            0   -10521.425            0 
     925            0   -10521.453            0   -10521.453            0 
     926            0   -10521.496            0   -10521.496            0 
     927            0   -10521.554            0   -10521.554            0 
     928            0   -10521.607            0   -10521.607            0 
     929            0   -10521.654            0   -10521.654            0 
     930            0   -10521.751            0   -10521.751            0 
     931            0    -10521.84            0    -10521.84            0 
     932            0   -10521.933            0   -10521.933            0 
     933            0   -10522.038            0   -10522.038            0 
     934            0   -10522.104            0   -10522.104            0 
     935            0   -10522.163            0   -10522.163            0 
     936            0   -10522.229            0   -10522.229            0 
     937            0   -10522.289            0   -10522.289            0 
     938            0   -10522.324            0   -10522.324            0 
     939            0   -10522.367            0   -10522.367            0 
     940            0   -10522.426            0   -10522.426            0 
     941            0   -10522.479            0   -10522.479            0 
     942            0   -10522.542            0   -10522.542            0 
     943            0   -10522.593            0   -10522.593            0 
     944            0   -10522.652            0   -10522.652            0 
     945            0   -10522.694            0   -10522.694            0 
     946            0   -10522.732            0   -10522.732            0 
     947            0   -10522.794            0   -10522.794            0 
     948            0   -10522.843            0   -10522.843            0 
     949            0   -10522.919            0   -10522.919            0 
     950            0   -10522.967            0   -10522.967            0 
     951            0   -10523.007            0   -10523.007            0 
     952            0   -10523.063            0   -10523.063            0 
     953            0   -10523.096            0   -10523.096            0 
     954            0   -10523.147            0   -10523.147            0 
     955            0   -10523.199            0   -10523.199            0 
     956            0   -10523.249            0   -10523.249            0 
     957            0   -10523.319            0   -10523.319            0 
     958            0   -10523.365            0   -10523.365            0 
     959            0   -10523.419            0   -10523.419            0 
     960            0   -10523.477            0   -10523.477            0 
     961            0   -10523.523            0   -10523.523            0 
     962            0   -10523.572            0   -10523.572            0 
     963            0   -10523.606            0   -10523.606            0 
     964            0   -10523.685            0   -10523.685            0 
     965            0    -10523.72            0    -10523.72            0 
     966            0   -10523.784            0   -10523.784            0 
     967            0   -10523.835            0   -10523.835            0 
     968            0   -10523.915            0   -10523.915            0 
     969            0   -10523.996            0   -10523.996            0 
     970            0   -10524.083            0   -10524.083            0 
     971            0   -10524.188            0   -10524.188            0 
     972            0   -10524.297            0   -10524.297            0 
     973            0   -10524.437            0   -10524.437            0 
     974            0   -10524.554            0   -10524.554            0 
     975            0   -10524.646            0   -10524.646            0 
     976            0   -10524.766            0   -10524.766            0 
     977            0   -10524.868            0   -10524.868            0 
     978            0    -10524.94            0    -10524.94            0 
     979            0   -10525.017            0   -10525.017            0 
     980            0   -10525.103            0   -10525.103            0 
     981            0   -10525.211            0   -10525.211            0 
     982            0   -10525.302            0   -10525.302            0 
     983            0   -10525.377            0   -10525.377            0 
     984            0   -10525.443            0   -10525.443            0 
     985            0   -10525.517            0   -10525.517            0 
     986            0   -10525.584            0   -10525.584            0 
     987            0   -10525.651            0   -10525.651            0 
     988            0   -10525.725            0   -10525.725            0 
     989            0   -10525.793            0   -10525.793            0 
     990            0   -10525.866            0   -10525.866            0 
     991            0   -10525.932            0   -10525.932            0 
     992            0   -10525.996            0   -10525.996            0 
     993            0   -10526.058            0   -10526.058            0 
     994            0   -10526.101            0   -10526.101            0 
     995            0   -10526.163            0   -10526.163            0 
     996            0   -10526.216            0   -10526.216            0 
     997            0   -10526.271            0   -10526.271            0 
     998            0   -10526.294            0   -10526.294            0 
     999            0   -10526.341            0   -10526.341            0 
    1000            0   -10526.383            0   -10526.383            0 
Loop time of 355.6 on 1 procs for 1000 steps with 2400 atoms

95.3% CPU use with 1 MPI tasks x 1 OpenMP threads

Minimization stats:
  Stopping criterion = max iterations
  Energy initial, next-to-last, final = 
     -6602.96337890625  -10526.3408203125     -10526.3828125
  Force two-norm initial, final = 224.76067 0.49059802
  Force max component initial, final = 12.311557 0.10557143
  Final line search alpha, max atom move = 0.30494865 0.032193866
  Iterations, force evaluations = 1000 1696

MPI task timing breakdown:
Section |  min time  |  avg time  |  max time  |%varavg| %total
---------------------------------------------------------------
Pair    | 354.62     | 354.62     | 354.62     |   0.0 | 99.72
Neigh   | 0.70298    | 0.70298    | 0.70298    |   0.0 |  0.20
Comm    | 0.098746   | 0.098746   | 0.098746   |   0.0 |  0.03
Output  | 0.031079   | 0.031079   | 0.031079   |   0.0 |  0.01
Modify  | 0          | 0          | 0          |   0.0 |  0.00
Other   |            | 0.1461     |            |       |  0.04

Nlocal:        2400.00 ave        2400 max        2400 min
Histogram: 1 0 0 0 0 0 0 0 0 0
Nghost:        4949.00 ave        4949 max        4949 min
Histogram: 1 0 0 0 0 0 0 0 0 0
Neighs:         0.00000 ave           0 max           0 min
Histogram: 1 0 0 0 0 0 0 0 0 0
FullNghs:      243508.0 ave      243508 max      243508 min
Histogram: 1 0 0 0 0 0 0 0 0 0

Total # of neighbors = 243508
Ave neighs/atom = 101.46167
Neighbor list builds = 56
Dangerous builds = 0
Setting up Verlet run ...
  Unit style    : metal
  Current step  : 0
  Time step     : 0.001
Per MPI rank memory allocation (min/avg/max) = 3.992 | 3.992 | 3.992 Mbytes
Step Temp E_pair E_mol TotEng Press 
       0         1000   -10526.384            0   -10216.289    9977.8184 
     100    524.28181   -10356.835            0   -10194.258    5231.1887 
     200    609.30197   -10342.104            0   -10153.163    6079.5045 
     300       700.55   -10321.376            0   -10104.139    6989.9607 
     400    790.27724   -10295.529            0   -10050.468    7885.2428 
     500    872.85988   -10266.241            0   -9995.5717    8709.2374 
     600    923.55032   -10231.337            0   -9944.9485    9215.0174 
     700    1008.0827   -10215.547            0   -9902.9454    10058.466 
     800    1041.3169   -10201.043            0   -9878.1357    10390.071 
     900    1030.9775    -10199.37            0   -9879.6691    10286.907 
    1000    1020.1812   -10214.818            0   -9898.4652    10179.183 
    1100    982.17664   -10224.525            0   -9919.9572    9799.9802 
    1200    955.91573   -10223.557            0   -9927.1319    9537.9536 
    1300     1010.586   -10231.899            0   -9918.5217    10083.444 
    1400    1019.3328    -10227.25            0   -9911.1599    10170.718 
    1500    1020.6261   -10232.223            0   -9915.7315    10183.622 
    1600    993.62676   -10235.502            0   -9927.3832    9914.2274 
    1700    995.16704   -10245.565            0    -9936.969    9929.5961 
[...]
Neigh   | 61.829     | 61.829     | 61.829     |   0.0 |  0.16
Comm    | 11.116     | 11.116     | 11.116     |   0.0 |  0.03
Output  | 0.0058515  | 0.0058515  | 0.0058515  |   0.0 |  0.00
Modify  | 9.3378     | 9.3378     | 9.3378     |   0.0 |  0.02
Other   |            | 4.128      |            |       |  0.01

Nlocal:        2400.00 ave        2400 max        2400 min
Histogram: 1 0 0 0 0 0 0 0 0 0
Nghost:        4908.00 ave        4908 max        4908 min
Histogram: 1 0 0 0 0 0 0 0 0 0
Neighs:         0.00000 ave           0 max           0 min
Histogram: 1 0 0 0 0 0 0 0 0 0
FullNghs:      235004.0 ave      235004 max      235004 min
Histogram: 1 0 0 0 0 0 0 0 0 0

Total # of neighbors = 235004
Ave neighs/atom = 97.918333
Neighbor list builds = 5215
Dangerous builds = 0
Setting up Verlet run ...
  Unit style    : metal
  Current step  : 250000
  Time step     : 0.001
Per MPI rank memory allocation (min/avg/max) = 4.494 | 4.494 | 4.494 Mbytes
Step Temp E_pair TotEng f_3 v_tdiff f_ave 
  250000    988.37268   -10402.089   -10095.599            0  0.061521746  0.061521746 
  251000    1001.2205   -10406.071   -10095.598    32.351457  0.062984248  0.062252997 
  252000    1002.0605   -10406.334     -10095.6    65.963043  0.068544607    0.0643502 
  253000    1003.1337   -10406.655   -10095.588    98.088991  0.064445049  0.064373912 
  254000    991.31554   -10402.998   -10095.596    131.78956  0.060273694  0.063553869 
  255000     988.3178    -10402.08   -10095.608    165.71215  0.060863603  0.063105491 
  256000    1001.4116   -10406.118   -10095.585    198.65961  0.060450353  0.062726186 
  257000    1031.3081   -10415.398   -10095.595    232.96136  0.065279299  0.063045325 
  258000    1013.8722    -10409.99   -10095.593    266.96573  0.061562972  0.062880619 
  259000    1027.3346   -10414.171   -10095.599     299.8128  0.063953257  0.062987883 
  260000    990.20319   -10402.643   -10095.585    333.13298  0.062714263  0.062963008 
  261000    996.34075   -10404.543   -10095.583    366.25169  0.058974998  0.062630674 
  262000    1015.1204   -10410.366   -10095.582    398.74792  0.063337788  0.062685067 
  263000    1012.6117   -10409.595   -10095.589    431.57129  0.064272649  0.062798466 
  264000     1032.542   -10415.772   -10095.586    464.29394  0.057742464  0.062461399 
  265000      1012.02   -10409.413   -10095.591     499.9422  0.057095195  0.062126012 
  266000    1001.3833   -10406.118   -10095.594    533.22713  0.062149631  0.062127401 
  267000    1029.4658   -10414.815   -10095.583    568.65679   0.05991391  0.062004429 
  268000    991.62411   -10403.093   -10095.595    604.56459  0.061232925  0.061963824 
  269000    996.47724   -10404.586   -10095.583     636.2165  0.060443841  0.061887825 
  270000    1007.7845   -10408.104   -10095.595    667.64917  0.070139733  0.062280773 
  271000    993.74528   -10403.735    -10095.58     700.9892  0.063863456  0.062352713 
  272000     1030.821   -10415.232    -10095.58    733.93023  0.060110659  0.062255232 
  273000    987.93924   -10401.938   -10095.582    769.58351   0.05667879   0.06202288 
  274000    1024.7626   -10413.345   -10095.571    801.47264  0.061327254  0.061995055 
  275000     1009.746   -10408.686   -10095.568    834.69942  0.063430782  0.062050276 
  276000    1004.1884   -10406.979   -10095.585    866.67455  0.068597489  0.062292765 
  277000     991.9096   -10403.159   -10095.573    901.44807  0.060293479  0.062221362 
  278000    1014.6501   -10410.213   -10095.575    934.76076  0.059661816  0.062133102 
  279000    1008.6352   -10408.346   -10095.573    968.40247  0.060337797  0.062073258 
  280000    1013.1262   -10409.731   -10095.566    1001.8822  0.059692748  0.061996468 
  281000    994.01582   -10403.816   -10095.577    1036.2044  0.062625326  0.062016119 
  282000    1024.7892   -10413.355   -10095.573    1069.8821  0.061573292    0.0620027 
  283000    1009.7624   -10408.685   -10095.562     1103.526   0.06342849  0.062044635 
  284000    1004.8061   -10407.168   -10095.583    1135.1671  0.060840344  0.062010227 
  285000     978.0544   -10398.847   -10095.557    1168.0629  0.063909976  0.062062998 
  286000    1022.7573   -10412.724   -10095.572    1200.6584  0.069567145  0.062265813 
  287000    1001.4827   -10406.103   -10095.548    1233.9344  0.064482023  0.062324134 
  288000    1003.5235   -10406.752   -10095.564    1267.6775  0.062574512  0.062330554 
  289000    1011.6316   -10409.258   -10095.556    1303.9723  0.059145991   0.06225094 
  290000    983.73634   -10400.606   -10095.555    1336.3484  0.064657135  0.062309628 
  291000    1021.1036   -10412.207   -10095.568    1370.1859  0.056970684   0.06218251 
  292000    1017.1158   -10410.956   -10095.553    1404.7416  0.062483657  0.062189513 
  293000    1011.7238   -10409.299   -10095.568     1438.332  0.060429694  0.062149517 
  294000    1011.4312   -10409.202   -10095.562    1473.0222  0.062116405  0.062148782 
  295000    1017.9241    -10411.22   -10095.566    1506.6577  0.066850721  0.062250998 
  296000    1004.6303   -10407.072   -10095.541    1539.0147  0.061660389  0.062238431 
  297000    1021.5679   -10412.335   -10095.552    1575.7493  0.054960954  0.062086817 
  298000    1021.9721   -10412.451   -10095.543     1610.044  0.058004788  0.062003511 
  299000    999.53026   -10405.493   -10095.544    1644.7032   0.05787043  0.061920849 
  300000    1025.8644   -10413.663   -10095.548    1678.1546  0.059923818  0.061881692 
  301000    1005.7785   -10407.437    -10095.55    1711.9817   0.06216796  0.061887197 
  302000    1001.9326   -10406.242   -10095.548     1743.111  0.067998921  0.062002512 
  303000    1007.4192    -10407.95   -10095.554    1777.4792  0.060098941  0.061967261 
  304000     1002.735   -10406.491   -10095.548    1810.5708  0.062104551  0.061969757 
  305000    1025.4683   -10413.542   -10095.549    1844.5293  0.062912106  0.061986585 
  306000    1006.6147   -10407.701   -10095.555    1877.9751  0.058189875  0.061919976 
  307000    1025.7496    -10413.62    -10095.54    1910.3965  0.059333279  0.061875378 
  308000    991.79666   -10403.091    -10095.54    1943.5964  0.056150392  0.061778344 
  309000    1012.7394    -10409.58   -10095.535    1977.5027  0.062416208  0.061788975 
  310000    1007.5172   -10407.981   -10095.555    2009.5697   0.06364603  0.061819419 
  311000    1007.8137   -10408.067   -10095.549    2042.3513  0.068216081  0.061922591 
  312000    1025.2795   -10413.493   -10095.559    2075.2271  0.064770835  0.061967801 
  313000    1001.6574   -10406.156   -10095.547    2109.6882  0.062104049   0.06196993 
  314000    1013.6014    -10409.84   -10095.527    2143.5919  0.063018376   0.06198606 
  315000    1000.3919   -10405.762   -10095.545    2177.8683  0.059693828  0.061951329 
  316000    1007.0387   -10407.807   -10095.529    2209.6933   0.06410656  0.061983496 
  317000    1011.0367   -10409.048    -10095.53    2243.8312  0.063718478  0.062009011 
  318000    1023.7657   -10413.005    -10095.54    2279.2974  0.061806577  0.062006077 
  319000    1010.3002    -10408.82   -10095.531    2313.5061  0.063637119  0.062029378 
  320000    995.84471   -10404.353   -10095.546    2346.0582  0.059924026  0.061999725 
  321000    1012.1774   -10409.407   -10095.536     2378.069   0.06513119  0.062043217 
  322000    1000.7791   -10405.869   -10095.532     2412.109  0.061944102   0.06204186 
  323000    1013.1276   -10409.703   -10095.537    2447.7477  0.061703035  0.062037281 
  324000    988.18333   -10401.961    -10095.53    2480.0262  0.065998864  0.062090102 
  325000    1000.2659   -10405.713   -10095.535    2513.2631  0.063864028  0.062113443 
  326000    1006.6191   -10407.684   -10095.536    2547.7767  0.057025449  0.062047365 
  327000    1019.2828   -10411.609   -10095.535    2581.9905  0.065792986  0.062095386 
  328000    985.92954   -10401.266   -10095.534    2613.8392  0.058770377  0.062053297 
  329000    998.06066   -10405.044    -10095.55    2647.8877  0.056935809  0.061989329 
  330000    1005.3368   -10407.267   -10095.517    2682.0854  0.058381581  0.061944789 
  331000    1008.2492   -10408.183   -10095.529     2715.479  0.063580987  0.061964742 
  332000    991.03557    -10402.85   -10095.534    2749.2283  0.059189743  0.061931309 
  333000    1012.4223   -10409.482   -10095.535    2781.2776  0.065779595  0.061977121 
  334000    1026.4116   -10413.805   -10095.519    2813.9793  0.062640438  0.061984925 
  335000    986.80698   -10401.529   -10095.525    2846.9935  0.059859171  0.061960207 
  336000    1011.0253   -10409.041   -10095.527    2881.1285  0.063609376  0.061979163 
  337000     1014.093   -10409.997   -10095.532    2912.8979  0.066384053  0.062029219 
  338000     981.3112   -10399.832   -10095.532    2947.6657  0.062681574  0.062036549 
  339000    1024.3022   -10413.161    -10095.53    2981.7814  0.060522459  0.062019725 
  340000    989.35471   -10402.318   -10095.524    3016.6446  0.057640595  0.061971603 
  341000    1005.1932   -10407.257   -10095.551    3052.5613  0.053940895  0.061884313 
  342000     985.4311   -10401.099   -10095.521    3088.3776  0.058769129  0.061850816 
  343000     995.1608   -10404.117   -10095.523    3124.6903  0.058571876  0.061815934 
  344000    1005.8839   -10407.446   -10095.527    3158.6279  0.063184596  0.061830341 
  345000    1001.7907   -10406.163   -10095.513    3191.6668  0.060615727  0.061817688 
  346000     992.5605   -10403.312   -10095.524    3227.4776   0.05844665  0.061782936 
  347000    1005.5296   -10407.332   -10095.522    3260.4421  0.054657656  0.061710229 
  348000    994.05634   -10403.784   -10095.532    3293.7958  0.061084564  0.061703909 
  349000    1019.4661   -10411.666   -10095.535    3325.1634  0.057305647  0.061659926 
  350000    1008.2441   -10408.171   -10095.519    3358.4296  0.059775767  0.061641271 
  351000    1015.9383   -10410.565   -10095.528    3392.8247  0.054993674  0.061576099 
  352000    1012.3256   -10409.434   -10095.516     3427.914   0.06127777  0.061573202 
  353000    994.70763   -10403.968   -10095.514      3460.76  0.064264249  0.061599078 
  354000    1007.3608    -10407.91   -10095.533    3493.5005  0.063400757  0.061616236 
  355000    1017.1424   -10410.918   -10095.507    3527.1682  0.067029551  0.061667305 
  356000    1008.4037   -10408.224   -10095.523     3560.269  0.066082317  0.061708567 
  357000    990.28551   -10402.602   -10095.519    3594.3819   0.06379758   0.06172791 
  358000    1027.9592   -10414.282   -10095.517     3628.642  0.063842587  0.061747311 
  359000    1016.0007   -10410.571   -10095.514     3661.971  0.062161931   0.06175108 
  360000    1024.4392    -10413.19   -10095.517    3694.9356  0.064652205  0.061777216 
  361000    993.49783   -10403.593   -10095.514    3726.6651  0.061706862  0.061776588 
  362000    996.82136   -10404.618   -10095.509    3758.6879  0.062064364  0.061779135 
  363000    998.91274   -10405.268    -10095.51    3791.9904  0.060046952   0.06176394 
  364000    999.31786   -10405.381   -10095.497     3824.982  0.061405957  0.061760827 
  365000    1001.6771    -10406.14   -10095.524    3857.7046  0.063388284  0.061774857 
  366000    1033.7663   -10416.076    -10095.51    3891.8332   0.05847377  0.061746643 
  367000     1011.412   -10409.143   -10095.509    3924.7379  0.058609512  0.061720057 
  368000    1002.7471   -10406.447     -10095.5    3958.2517  0.059213711  0.061698995 
  369000    995.41902   -10404.175     -10095.5    3991.3073  0.063689776  0.061715585 
  370000    991.26804   -10402.886   -10095.498    4025.2621   0.06043686  0.061705017 
  371000    999.42596   -10405.413   -10095.496    4059.3743  0.059911751  0.061690318 
  372000    1024.1866   -10413.086   -10095.491    4091.8322  0.059987832  0.061676477 
  373000    990.60632   -10402.688   -10095.506    4126.8832   0.06374734  0.061693177 
  374000    1000.2972     -10405.7   -10095.513    4160.0522  0.065433256  0.061723098 
  375000    996.34106   -10404.457   -10095.497    4193.1858  0.059507917  0.061705517 
  376000    1032.8498   -10415.779   -10095.498    4226.6562  0.063327941  0.061718292 
  377000    991.23255   -10402.888   -10095.511    4260.4891  0.058339944  0.061691899 
  378000    1000.5372   -10405.773   -10095.512      4295.27  0.055000237  0.061640025 
  379000    1014.9658   -10410.238   -10095.502    4330.4862  0.058110842  0.061612878 
  380000    993.14699    -10403.47     -10095.5    4364.2754    0.0611449  0.061609305 
  381000    999.67052   -10405.485   -10095.492    4396.2963  0.057019767  0.061574536 
  382000    1001.2352    -10405.97   -10095.492    4429.1049  0.057490685  0.061543831 
  383000    1010.2744   -10408.779   -10095.498    4461.6234  0.055830076  0.061501191 
  384000    1005.3421   -10407.252     -10095.5     4494.148  0.057183089  0.061469205 
  385000    997.32903   -10404.758   -10095.491    4528.4749  0.054296101  0.061416461 
  386000    999.42981   -10405.402   -10095.484    4564.8462  0.062013962  0.061420823 
  387000    988.03219   -10401.857   -10095.473    4599.4028  0.061317634  0.061420075 
  388000    993.56739     -10403.6   -10095.499    4631.6685  0.061818254  0.061422939 
  389000    1000.1372   -10405.633   -10095.495    4665.3168  0.056924095  0.061390805 
  390000    1004.2346   -10406.902   -10095.494    4698.1617  0.063002402  0.061402235 
  391000    1001.1852   -10405.971   -10095.508    4733.0518  0.062430185  0.061409474 
  392000    991.55166   -10402.972   -10095.496    4766.7812  0.062497075  0.061417079 
  393000    1022.2166   -10412.483   -10095.499     4798.596  0.068263667  0.061464625 
  394000    991.06497   -10402.818   -10095.494    4833.9922  0.060787306  0.061459954 
  395000    966.86077   -10395.304   -10095.485    4866.1719  0.064254229  0.061479093 
  396000    990.12612   -10402.526   -10095.493    4899.5042  0.061412704  0.061478641 
  397000    996.56993   -10404.521   -10095.489    4933.0494  0.064188837  0.061496953 
  398000    1010.4702   -10408.834   -10095.492    4966.8571  0.064865133  0.061519558 
  399000    1018.9258   -10411.452   -10095.488    5000.7152  0.060203546  0.061510785 
  400000    1032.3474   -10415.628   -10095.502    5032.8099  0.060160694  0.061501844 
  401000    999.69082   -10405.482   -10095.483    5066.4036  0.060833442  0.061497447 
  402000    1000.6072   -10405.775   -10095.492    5099.2525  0.057530343  0.061471518 
  403000    988.32269    -10401.96   -10095.486    5132.6655  0.055273094  0.061431268 
  404000    1003.4961   -10406.677   -10095.498    5165.9796  0.058664869  0.061413421 
  405000    980.62995   -10399.563   -10095.475    5199.4959   0.05911825  0.061398708 
  406000    990.21972   -10402.564   -10095.502    5232.4451   0.06000386  0.061389824 
  407000    1004.4732   -10406.979   -10095.496    5267.1935  0.062779403  0.061398618 
  408000    995.04778   -10404.046   -10095.486    5300.1571  0.059020265   0.06138366 
  409000      990.701   -10402.692   -10095.481    5334.0475   0.05997685  0.061374868 
  410000    1014.6084   -10410.138   -10095.513    5366.1169  0.058985099  0.061360024 
  411000    1017.0999   -10410.899   -10095.502    5402.5045  0.064731567  0.061380836 
  412000    1013.5519   -10409.787    -10095.49    5435.2629  0.059279755  0.061367946 
  413000    1026.9811   -10413.963   -10095.501    5468.1606  0.061472467  0.061368584 
  414000    1019.9963   -10411.799   -10095.503    5503.4287  0.059037627  0.061354457 
  415000    1012.2359   -10409.385   -10095.495    5538.7936  0.055586823  0.061319712 
  416000    1000.5751   -10405.783    -10095.51    5572.8836  0.066808212  0.061352577 
  417000    997.86806   -10404.928   -10095.494    5605.9874  0.056047068  0.061320997 
  418000    994.00527   -10403.729   -10095.492    5638.5268  0.057391588  0.061297746 
  419000    1024.2105   -10413.095   -10095.492    5673.1079  0.059979863  0.061289993 
  420000    1008.4265   -10408.196   -10095.488    5708.7947  0.058106361  0.061271376 
  421000    1036.9045   -10417.041   -10095.502    5743.3746  0.059549319  0.061261364 
  422000    994.69919   -10403.936   -10095.484    5776.9522  0.061453836  0.061262476 
  423000     1007.815   -10408.017   -10095.498    5810.2629   0.06050539  0.061258125 
  424000    1012.3165   -10409.409   -10095.495    5843.3148  0.063582149  0.061271405 
  425000    991.74525   -10403.041   -10095.506    5876.1831  0.061559327  0.061273041 
  426000    998.89187   -10405.251     -10095.5    5909.5516  0.059615549  0.061263677 
  427000      1008.34   -10408.175   -10095.494    5943.8784  0.057966792  0.061245155 
  428000    1015.2019   -10410.294   -10095.485     5977.904  0.062173748  0.061250343 
  429000    993.39261   -10403.531   -10095.485    6012.8012  0.054441538  0.061212516 
  430000    999.33571   -10405.393   -10095.503    6048.6193  0.057003165   0.06118926 
  431000    1024.6362   -10413.229   -10095.495    6081.6561  0.059827811   0.06118178 
  432000    1023.9549   -10413.004   -10095.481    6115.8409  0.062139066  0.061187011 
  433000    1007.2512   -10407.812   -10095.469    6150.2038  0.063812686  0.061201281 
  434000    1003.8221   -10406.748   -10095.468    6183.7571  0.067034775  0.061232813 
  435000    1015.1806   -10410.283   -10095.481    6216.8892  0.058883244  0.061220181 
  436000      999.935   -10405.552   -10095.477    6251.3675  0.064237538  0.061236317 
  437000    1031.8794   -10415.466   -10095.485    6285.3026  0.064337036   0.06125281 
  438000    998.18658   -10405.007   -10095.474    6319.1389  0.062692393  0.061260427 
  439000    1018.2754   -10411.245   -10095.483    6352.6763  0.057627366  0.061241305 
  440000    992.77546   -10403.339   -10095.484    6387.3173  0.061058342  0.061240347 
  441000    1017.1675   -10410.892   -10095.473    6421.6973  0.062384931  0.061246309 
  442000    992.37316   -10403.211   -10095.481    6454.2253  0.061545674   0.06124786 
  443000    1012.6234   -10409.497   -10095.488    6489.0655  0.063509461  0.061259517 
  444000    1005.9727    -10407.43   -10095.482    6521.7048  0.067916845  0.061293658 
  445000    1001.0454   -10405.878   -10095.459    6555.2663  0.062939028  0.061302052 
  446000    1032.1912   -10415.565   -10095.488     6589.874  0.061338431  0.061302237 
  447000    1012.2133   -10409.342   -10095.459    6624.1653  0.059898397  0.061295147 
  448000    1001.7148   -10406.099   -10095.472     6657.362  0.060293075  0.061290111 
  449000     994.3822   -10403.821   -10095.468    6692.0151  0.058431666  0.061275819 
  450000    1019.5856   -10411.647   -10095.479    6726.3501  0.061125442  0.061275071 
Loop time of 38655.3 on 1 procs for 200000 steps with 2400 atoms

Performance: 0.447 ns/day, 53.688 hours/ns, 5.174 timesteps/s
94.3% CPU use with 1 MPI tasks x 1 OpenMP threads

MPI task timing breakdown:
Section |  min time  |  avg time  |  max time  |%varavg| %total
---------------------------------------------------------------
Pair    | 38568      | 38568      | 38568      |   0.0 | 99.77
Neigh   | 62.195     | 62.195     | 62.195     |   0.0 |  0.16
Comm    | 11.129     | 11.129     | 11.129     |   0.0 |  0.03
Output  | 0.0052978  | 0.0052978  | 0.0052978  |   0.0 |  0.00
Modify  | 9.5448     | 9.5448     | 9.5448     |   0.0 |  0.02
Other   |            | 4.152      |            |       |  0.01

Nlocal:        2400.00 ave        2400 max        2400 min
Histogram: 1 0 0 0 0 0 0 0 0 0
Nghost:        4947.00 ave        4947 max        4947 min
Histogram: 1 0 0 0 0 0 0 0 0 0
Neighs:         0.00000 ave           0 max           0 min
Histogram: 1 0 0 0 0 0 0 0 0 0
FullNghs:      234740.0 ave      234740 max      234740 min
Histogram: 1 0 0 0 0 0 0 0 0 0

Total # of neighbors = 234740
Ave neighs/atom = 97.808333
Neighbor list builds = 5222
Dangerous builds = 0
Running average thermal conductivity: 8.21
System init for write_data ...
Total wall time: 24:19:45
