LAMMPS data file via write_data, version 29 Sep 2021, timestep = 450000

2400 atoms
3 atom types

0 23.302589919683907 xlo xhi
0 34.95388487952586 ylo yhi
0 46.605179839367814 zlo zhi

Masses

1 18.998403163
2 6.938
3 22.989769

Atoms # atomic

1448 1 3.7596734396528455 1.0567210226374624 3.763322171638766 0 0 0
1569 3 1.3352436553987426 1.5405507526267115 46.17846579213834 0 1 -1
1313 1 5.469354411713447 2.368417618694224 1.316934962621347 0 0 1
258 3 5.089575476115449 0.17393879154807393 1.8991764127194137 0 0 0
982 3 6.437197447618367 4.5651788334787495 1.6248856296753524 -1 0 0
957 3 7.093632859382989 1.7655782458234996 46.58312482642482 -2 0 -1
1717 1 10.777629655991683 1.9419101771655713 1.8490187503618487 1 0 0
72 3 10.357948041760544 3.266352755079954 0.02247687408285476 0 0 0
1481 3 8.62781348648171 4.345088038005487 2.7422317091512185 1 1 1
2270 3 13.809710416366352 4.0027830107452775 1.114132130573474 -2 1 1
1979 3 15.061922710699644 0.32341518709003714 46.55756621466064 0 -1 1
2013 1 14.12890408375792 1.9745838051286848 0.9260254876703448 0 1 1
1150 1 12.93425828976984 0.6159008832615022 3.696842665084572 1 1 0
1895 3 14.341057218918808 1.9970748991245066 3.384981687242203 -1 -1 1
1666 3 16.779302840869185 2.279385211881941 1.183824538953311 0 2 0
1235 1 17.542796248149248 0.6766326588890468 2.6691543747835946 -1 0 1
561 3 0.007414282535552572 3.797755353197395 1.749832319699131 1 0 1
902 1 0.6523290375400935 1.521006756155931 1.6598802802505455 0 1 0
1863 3 19.435882105315343 1.913275004567393 2.4236312389317547 -3 0 2
1917 1 20.381086311207678 0.3912468376270865 1.079688478266973 -1 0 1
2071 3 22.411913695991444 0.14678647101740627 1.3950875925531816 1 0 1
1041 1 0.466428253636168 5.803396469035529 1.4029627348108133 -1 1 0
872 3 2.2285477802552496 6.085337310259733 2.8217230228000423 -1 1 1
2223 1 8.302382691005937 3.3807169138783593 0.9778258535927407 0 1 1
1388 3 5.174893760461227 6.8448499322974135 0.31355401046677306 0 0 1
38 1 7.627966140511794 6.103270282442519 46.023728002915945 1 0 0
322 1 4.634079712998006 5.313234169859359 2.0360437350907663 0 1 0
2266 3 9.001865697116743 5.817407504321506 44.223889758839626 0 1 -1
327 1 10.76425215737173 5.5769937988034 1.6383093282365824 0 1 0
1955 3 12.560328403797433 5.953518530712413 3.127857571137371 2 0 1
2005 1 13.556449675811193 7.483545093803021 45.59407794075213 -2 1 0
1659 3 16.905362122181113 5.145320734594433 1.7297338016160477 -1 1 0
2028 1 18.205895833321005 6.565550152770096 1.313550856402996 0 0 1
1383 3 19.580459705926994 4.569082510784216 2.705516707511355 0 0 1
1537 1 18.833849514037208 3.3977579477423827 0.5409710366377531 1 0 0
1924 1 16.126038146866755 3.322527996842525 2.790306601970711 0 0 1
1064 3 19.75022620877842 6.6533833402226445 0.14716164504816476 -1 -1 1
526 1 20.6907867237351 6.805367930732823 2.566307603322286 0 0 0
2061 3 21.99316169163895 5.526431417456028 3.75262062269411 -1 1 1
111 1 21.61481588895795 3.6468838370118406 2.9863685233212225 0 -1 0
338 1 2.4852593479717093 7.764944972321819 1.2144082281743867 1 0 0
1070 3 3.4204822541737587 9.878582214655479 1.7116359387770077 0 1 0
1593 3 23.08470420327089 10.492381441018681 0.9694025497688054 1 0 1
1040 1 3.853541972869458 12.176180703936407 1.0228552356734173 1 0 -1
286 3 6.3408496799914085 10.40053131216016 1.4279605185407043 1 0 0
1817 1 4.800021738682777 9.064883748823412 0.2560047022119865 0 0 1
1811 1 7.752017730338981 8.61295458121149 1.2805680323760023 -1 -1 0
1626 1 10.641356080853184 11.107735626345494 0.8086791656175365 -1 1 1
880 3 9.058009222187788 7.014481848097412 1.0720067307436527 -1 0 1
9 1 12.604833209346507 7.844960279914115 2.063920534983123 0 0 0
831 1 13.606858063544973 10.412515941376492 0.33043416622309635 3 0 0
1286 3 14.328994720029776 8.305148213448934 1.1684424150447201 1 0 0
277 3 12.303394899922855 12.332473381862865 2.3033457491758162 0 1 0
887 3 11.50959082111064 9.267470789808105 1.1671586865237351 -1 0 0
2329 1 16.409483360057575 9.018349880483413 46.10270836664897 -1 1 0
766 3 17.473141328933835 8.371901464806022 1.2011182599046242 0 -1 1
2023 1 16.671053253422063 8.084182892474203 3.273528894057669 -1 0 1
182 3 18.12478613813047 11.204759207652662 0.2621231180539022 0 0 0
437 1 17.911046882864596 10.253026212525425 2.1838882635088535 -1 0 0
795 3 22.306842297625224 7.405995745355823 1.494897552924359 1 0 0
1513 1 22.344756026340182 9.200662135737405 2.6610815622712134 0 0 1
1565 3 20.101566719497875 9.828205872845912 2.1360015662563967 -1 0 0
1947 1 1.7980198217307843 10.837860898944156 3.249611157066275 0 -1 0
1358 3 1.5735507121431893 15.49354560213734 2.1687440100018724 2 0 0
384 3 2.136857967412544 12.612214081656873 46.31226378184065 0 1 -1
821 1 22.617735892910606 14.258213542047264 1.4891343430780533 0 0 0
2136 1 3.45566425250509 14.693112157514724 2.6071655505168567 1 -1 1
953 3 5.46693948288122 12.772750693251004 2.8668999656379417 1 -1 0
753 3 3.903005518678066 14.357053208469802 0.491736656270346 1 0 0
725 1 7.228858074029693 12.91063870740209 1.7241913951936008 1 -2 0
1990 3 8.487231222926706 12.750308992627371 3.629258627157394 0 0 1
1681 3 7.102491930011412 15.372557802427778 1.9506181194042138 1 1 1
1222 1 9.747686970954485 14.286143038739135 2.259297937358545 0 -1 0
221 1 14.111134848712505 13.579081940162295 2.265239292934398 -1 0 0
268 3 14.244766378713402 15.262795748300963 0.23225341282291634 -2 1 1
874 3 10.897309682299623 15.4143489885636 3.9131174613557578 -2 0 0
1875 3 14.944766339487547 12.168260501342957 1.1078819239400688 1 -2 0
60 3 17.829254238806648 15.52811466692348 1.8505547736000156 0 -1 0
228 1 17.022338111490143 13.466119748461303 2.0889702750613766 0 0 0
115 1 20.11318080760665 11.851630743573876 1.2844753265294806 0 0 0
1796 3 20.70254408175945 13.661734463364684 0.08096514442768918 -1 1 0
1794 3 1.8579170326458239 18.707740075848104 2.3220766240387007 1 1 0
1742 1 0.2309471278604378 17.095838968169712 1.1926283638865929 2 0 1
156 3 22.169892631234884 16.008264987183928 2.669923010247469 0 1 0
2249 1 2.618784929213453 18.622424933370574 0.2810851830519769 1 0 1
1611 1 4.0791634994577395 18.658838050504382 2.441128467659299 0 1 1
1097 3 6.096331088274818 18.482025654724865 2.674310064439746 0 0 0
1638 1 7.072393559589608 19.83738109349784 0.9264031664037887 1 1 0
1619 1 7.981361143913612 17.203705955233357 1.6294474515881856 -3 2 0
1587 3 8.179359983428183 17.59468116296291 46.286701423177284 3 0 0
222 1 11.606501430087983 17.073922162293435 2.788487972143022 0 -1 0
572 3 13.469138324918989 17.54308544887263 1.493398124938091 1 1 0
306 1 14.706130026750492 19.525458261657366 2.40873992146653 0 0 0
1718 1 13.103945202002164 16.718294668263066 45.874225780302915 1 0 -1
49 1 18.310276370119563 15.809387555677684 46.20187115379013 1 0 -1
428 1 15.587322668212241 16.28530630505522 1.7544470420870009 -2 1 0
1061 3 17.62147092141863 17.718339749813442 45.8418029380828 -1 1 -1
231 1 18.71793661878176 18.283831962457622 1.351383419235932 0 1 0
1864 3 16.725347603105515 17.503083569849842 3.2371721633710813 1 0 1
1251 3 20.263443993502143 17.208737933031845 0.20649077491213508 -3 -1 1
1948 1 20.0112127474788 15.461805590122141 1.9908072696297279 -1 -1 1
1325 1 1.3011188786677077 20.902104995968408 3.025136470103957 1 0 0
1564 3 22.64379294069361 21.353685598760613 0.922971938015993 -1 0 0
1987 3 2.7662394489705067 24.418463177083876 1.2076009315089629 3 -1 1
601 1 0.25326691841914084 23.26480188087894 1.5990116342912415 -1 0 1
1452 3 2.4898766819350358 21.37647914777784 1.3794843884870043 -1 0 0
718 1 3.67061316585639 22.25775348913422 2.685610410212601 0 0 1
1753 3 4.841409123818905 22.39547506522041 0.10580052425630271 1 0 0
1641 1 6.95758367269908 22.78290572185759 1.8069720338886346 -1 0 0
846 1 2.3304170511829265 22.683293506658767 46.137393501955195 0 0 0
1232 1 9.652869285178019 19.782320034069063 3.038347476858552 -2 0 1
893 3 7.814895586215744 21.113054091293446 2.5404118955016113 1 -1 1
1160 3 11.429177122644502 23.65823570331488 2.550328804031278 1 0 0
1872 3 8.954952657562535 24.146897048318987 3.718133438306434 0 0 1
695 3 12.445631437915237 20.726213463858073 2.3214697686371695 0 0 0
1720 1 13.645248880257027 22.61601143014762 1.9689588968155376 -2 0 1
209 1 11.793132568267488 19.85813833497643 0.5745770691176408 1 0 0
1280 3 13.917161301000371 20.86596988425434 0.5805134711379467 2 0 0
705 1 18.762221956281554 20.98900734640432 2.6764352391347543 0 -1 0
752 3 17.588887656134023 22.8849680559609 2.2096531978358014 -1 -1 0
1735 1 16.198063974718707 21.745681524579243 0.7148618631756495 0 0 1
1771 3 19.915649959973564 18.53351393742676 3.2007436155389235 0 0 0
1036 1 21.863066063469983 19.617418201800565 1.9889668642572718 1 1 1
1199 3 19.83129378193732 20.387810858246464 0.909385098401856 -1 0 1
1994 3 20.52719706139352 22.555337914437004 2.860541026676233 1 -1 0
2087 3 4.11626383104195 27.261436172728633 45.95999821014109 1 -1 0
1002 1 2.106988750475332 26.026728635524652 46.274978529070324 0 -1 -1
292 3 1.5743985774294702 23.19000319312938 3.4636153829122946 1 -1 0
1302 1 2.651277786028676 25.243693551897746 3.0647703010115634 1 0 1
1695 3 6.70019542549397 24.708189560793123 1.40630822293284 1 0 1
623 1 4.8757095599732265 24.416221966661908 0.17657338880299359 0 -1 -1
1779 3 5.0268088175284245 27.390622326440045 3.1463673845000817 1 0 1
915 1 5.811984768874895 25.242491399572724 3.4114384426088864 0 -1 0
1632 1 10.127762886742591 25.57610125490368 2.84423335380237 3 0 0
1337 1 10.395642480094635 22.287791076907098 0.8972118032203807 0 -1 1
2170 3 12.080588435113585 27.0937369541862 2.8394555492978326 0 -1 1
532 1 11.851305426854392 27.687759165160426 0.6323160769843859 0 0 0
1709 1 12.79570125429508 25.059298554186434 1.904353990546681 1 0 0
2155 3 15.04443889211227 23.644458000867278 0.6519684191435363 0 0 1
1081 3 15.506216838485306 26.70255257776093 1.9415232481025442 -2 0 0
2036 1 15.141451445392146 25.975005610707296 46.10137229106378 -2 -1 0
91 3 18.304782651975763 25.653138054912866 2.284541459444185 -1 0 1
636 1 18.188670363691248 24.32344003296288 0.7875626748920146 0 0 1
1877 3 0.5087562812939284 23.929159431851527 45.749208259011255 1 -1 0
1969 3 22.691973318135314 25.199333924954733 1.9471275194708129 0 -1 1
2217 1 20.518287134593855 24.60830494461576 2.3649344910913834 -1 0 2
1226 1 20.0848400851382 28.224857731609767 2.593769326251104 -1 -1 1
1557 3 21.319971420620472 24.609096581534672 5.583494858178542 1 0 0
594 3 1.7526802597338664 27.53272846780254 1.6994217450373394 0 -1 0
1705 1 3.436797917026277 28.474988806712403 0.7549901099475451 0 1 0
1274 3 3.1999319669803516 29.85441810815257 2.4360298763064843 -1 -1 1
48 1 1.325157008568229 30.843854621213268 2.4494113366420507 1 -1 1
1157 3 1.9986471917249575 29.373738950696833 45.62794621670326 0 0 0
2319 1 7.552025738555845 27.33616978380818 2.122913216114553 1 1 1
1389 3 6.884822264700184 29.077634649024667 0.9718479065866518 1 0 0
1739 1 5.260580645495867 29.70584634294337 3.53910377221528 1 0 1
1468 3 13.383006034690368 29.231848049720657 1.740949133979959 0 0 1
1832 1 9.006497010096409 29.716605231406216 1.060883509948645 0 0 1
673 3 9.028847398686898 29.162083017118228 3.4461446194855383 2 -1 -1
2231 1 14.217182435431393 27.609299636693454 3.5026956855705302 -1 0 0
949 1 15.147244630138255 28.511084662285636 0.9121110392688971 1 0 1
2354 3 15.727421329579174 28.776941226529317 4.095576446295128 1 -1 1
1936 1 17.236806577643062 27.46993630813465 2.9408539220091043 2 0 1
1361 3 17.932812182896374 28.689266623517444 1.4836778908390063 0 1 1
604 1 17.397015626956886 30.49267518569276 3.688702278798712 0 -2 1
16 1 17.23131002543355 30.129356619619603 0.07324525039619789 -2 -1 1
1581 3 21.171858961564997 27.003492547757084 4.064462462177518 0 0 0
235 1 21.443204470174045 31.05169962210792 2.1750723051918737 -2 -1 0
1116 1 0.49396384126862225 28.78241525546025 0.5153601174155391 -2 0 1
1243 1 23.136921359991298 26.972284729011744 3.3287164227630366 -1 0 0
776 3 20.16560506217191 30.418720212803773 3.837779458187605 -1 -1 0
848 1 0.34551566698492747 33.973987671238085 3.166827021951649 0 0 0
2318 1 4.506965398078993 32.564251784931265 3.330086386544631 1 0 0
198 3 2.1309656926260927 33.012304269631635 2.632514977336967 0 -1 0
1880 3 6.508975877116572 31.48305549099177 3.121563255202349 -1 -1 1
1828 1 5.686476558328899 34.62233724229416 46.42716647750544 0 -1 0
704 1 6.653353523480603 0.4462187779314506 3.955722657412528 0 2 0
1797 3 9.284865566039581 33.2472123598333 1.8549606271517014 0 -1 1
2289 3 11.988505292738493 0.31827384903741995 1.9562073157690774 0 0 0
2399 3 10.75899217740288 30.93712060336868 1.6463928482619483 0 0 1
649 1 8.608551355694585 31.55501807780441 2.9563616675348463 1 -1 0
1010 1 12.05829249423026 33.04526295127948 1.9970096434618896 0 0 0
2198 3 13.14295128010657 32.44953560587064 46.519816183918394 1 0 0
403 1 13.146685184857171 34.568661568176424 46.48381433821513 0 1 -1
637 1 14.257435869664485 30.746414155514067 3.103144940651167 -1 0 0
199 3 14.674090030263345 32.61319056989846 3.1750562353239817 0 -1 0
1207 1 15.76131496917523 33.328981691012245 1.0410326759187407 -2 -1 0
2290 3 18.308127182000565 34.26196167009046 0.9294467633187599 0 0 1
2312 1 18.809371779608465 32.3654334987006 2.156360303103508 0 0 1
497 3 16.57634182047668 31.228398693737134 1.822524812154725 0 1 1
1998 3 20.234587321944943 31.306951603716236 0.6537079748721516 0 0 1
564 3 23.144592977056405 31.59757216346892 3.88001407716307 0 1 0
1633 1 22.10773306498807 32.87045128960427 0.31170900505446664 0 1 1
283 3 21.41266108954691 33.093989719068745 2.3354649659614557 0 -1 0
2216 1 1.1773889000907303 0.7999195486252273 5.34087090071878 1 1 1
1931 1 4.2058347495225155 2.84084988671369 5.984866953181061 -1 0 0
970 3 1.8068306719978964 0.6842394298768084 3.1174584759522466 -1 1 0
2234 1 6.96320281991333 3.62812238764493 3.7912307623051755 0 1 0
1094 3 6.454116307662847 1.8073954887716535 5.590062010754859 -2 0 1
197 3 7.794273307427799 4.509856341528709 5.559166730324538 1 1 0
2049 1 9.32022903335074 2.9856419316116214 4.0350820987845655 0 1 1
569 3 8.41207167052966 1.5004789512796668 2.382533624364283 0 0 0
1542 1 7.966530788312694 0.9438844056183814 6.884696223265461 2 0 0
35 1 13.287270091681437 4.184721385987658 3.283876864423006 -2 0 1
654 3 11.456835870528424 2.497992529131847 3.743422719025575 -2 0 0
340 1 15.258977193842298 1.2617367512804694 5.013876659677158 -1 1 0
307 1 18.32457639102772 0.11605799071484238 5.5635317392605055 0 0 1
974 3 17.393256526771314 1.9941180867690733 4.487059957457794 0 1 0
2236 1 20.973364725561407 0.8528091415279311 3.8812515449059077 -1 0 0
67 3 22.705290141916556 2.191184946807814 4.272385983900249 -1 1 0
1946 1 19.498869079760638 3.1141257573419976 4.399283442420418 -2 1 1
1196 3 4.969796372478438 3.3805350644595857 3.8402733409692575 0 -1 1
1143 1 0.24304919895260602 6.99136728651692 4.161610717024186 0 2 0
1916 1 4.060355557567835 5.926489316841422 4.8046542226541025 1 1 1
890 3 2.509512828894363 4.1539744343360585 5.433042167367883 2 1 0
513 1 7.955133137802517 6.525093809610956 6.348380549371226 1 1 0
529 1 7.733127469388482 6.275401916910988 2.731908571889781 0 0 0
579 3 5.40279552239207 6.483451414768865 6.54905223340735 1 1 0
1087 3 12.74181692737929 4.667391834260129 5.559212021281363 0 2 0
204 1 11.46891158135942 6.228534788414324 5.052392354334674 -1 0 -1
2303 1 14.894651700081685 5.979507994438131 1.7067477035497385 0 1 1
1414 1 12.15224349860528 5.234959179289117 7.5368574901589405 0 2 0
482 3 15.321732657601565 5.15669702505517 3.8221201147750206 0 1 0
272 3 15.609654243358982 7.750262455359263 5.329547087463529 -1 0 0
134 1 14.583280567542038 5.962326108930555 5.963571728527762 0 0 0
816 1 17.325116039941804 5.677651139401891 4.548359579801417 -1 0 -1
1650 1 1.7511812773262176 3.569513121976907 3.352339479821487 0 1 0
1096 3 18.634088272554077 7.368860601315111 3.558251902791001 -1 1 0
131 1 21.091186309220447 6.342867213102396 5.845502918302016 1 0 0
1870 3 19.603135225235988 4.403472949852597 5.847430794339562 0 0 1
1364 3 2.513604776258071 7.45865235591081 5.235000433762256 0 0 0
1404 1 3.2882230504192296 8.517475099731415 3.5771960559512945 0 0 1
1460 3 0.4006278163087944 9.917090256403819 4.7746429481371955 1 0 0
591 3 1.2339768845768428 8.768426919751251 2.8032599154631095 1 1 0
1171 3 5.3840766973315 7.183365034809371 3.7091505590074223 1 0 0
645 1 5.54684449222765 8.500808623079797 5.595405918255018 1 -1 0
2146 1 6.16960037123833 10.779731786331975 3.4874704337781224 -1 1 1
2154 3 4.116938851107988 10.224031109473641 4.466209042582492 1 0 0
1165 3 7.310858835160747 9.568652620453435 5.4064762134342 0 1 0
554 3 11.509661607406315 8.095153113293316 3.9088694406597195 1 0 0
1672 3 8.634802182626935 7.1611590066382185 4.478385976370398 -1 1 0
314 1 9.213266288403013 9.010418078730511 4.406441522474841 0 1 0
2169 3 12.873130238821018 7.3175455280543185 7.350929094478731 0 0 0
1571 3 13.16118569832818 10.708962304094058 4.784804290104861 -1 -1 0
1534 1 11.269413892849288 11.16509899108651 3.7629179897141554 0 0 1
1334 1 14.873068649480237 11.191357169950491 3.895346005422758 1 1 1
782 3 14.398173216659604 12.960406989954667 5.192121512174058 -1 0 0
837 1 12.579659023888906 8.67441621232446 5.769706242256935 -2 -1 0
1268 3 16.771699990272477 10.295405663953453 3.9862822986772937 -2 -1 1
1824 1 15.441244410250336 8.678628943600957 6.94703191012034 -1 -1 0
2371 3 20.19869022956878 7.886636624974544 7.396656490153471 0 2 0
1290 3 19.926709646549664 10.675952743473594 5.68987485629719 2 -1 0
549 1 20.043474483163486 8.893008743036455 4.504829191163815 0 1 0
1961 3 21.775372295496624 8.024301499057584 4.889963242120292 2 -2 1
2031 1 22.34888323397497 8.437938430882273 7.411550580526621 1 -1 1
877 3 23.253183960793503 6.1995671411700695 6.4360578498941425 -2 0 0
1369 3 2.173170655244877 13.365310681115352 3.928724731160389 1 0 0
146 1 0.6080445200810339 14.70059049260278 4.27910670087082 1 -1 0
34 1 2.3611163055725446 12.679081292780921 5.896746778014666 0 -1 0
1306 1 1.2119704737009502 16.09746809609332 7.382280465571626 1 0 1
764 3 3.9979784375900715 17.063042472707295 3.9980147607129473 0 0 1
2102 1 5.709702755662521 13.439643077618237 4.830881184633138 0 1 0
2294 3 7.075552733669096 12.69146341448046 6.233990452113115 0 0 0
225 1 12.375384615470667 13.97296136589372 4.696988750349766 1 0 0
1855 3 10.805925138947487 10.238204981057235 5.585648736110321 0 -1 1
1220 1 8.8968243763182 11.614515986073648 5.261640202738717 -2 0 0
2250 1 15.187942543928669 14.556404325005314 5.905730104343263 -1 1 1
1156 3 15.393133002265367 14.76037249765776 3.3543171620718515 1 1 0
1787 3 13.18210054124084 16.09672132059828 6.213865572705986 1 1 0
1333 1 19.154497625313084 16.88265734618934 6.306772356346509 0 0 1
1631 1 17.65222498948366 11.186849367703863 5.606806674719393 0 0 0
282 3 21.527408539520327 12.571125121270676 3.0021266757204215 0 -1 -1
2097 3 18.092228833826617 12.833299924872815 3.8368771911855464 -1 -1 1
1105 1 22.12047571718773 11.397551982917333 4.496754944613481 -1 1 -1
1193 3 22.78365958338796 13.304238465993265 5.557851599975265 1 0 0
17 1 21.581136827906043 14.514580072609421 7.169970871444313 -2 0 -1
1442 1 20.324442164782564 13.116203686825482 4.747862366511813 -1 0 1
224 1 1.5940371426740254 17.802917635738012 4.473859212041147 0 1 0
1242 1 0.12069312015225779 19.4091349821888 6.519416299989608 0 0 1
397 3 0.3583750104239237 16.673190381457257 5.736339218610885 0 -1 0
557 3 23.048763934528395 20.226671160329875 4.2797523359189995 1 0 0
1941 1 6.034304024897229 16.437409634646137 3.287113055922473 -1 -1 0
1928 1 3.9623757253465652 16.41526713284085 6.3838455521334785 2 -1 1
583 3 6.216484313358681 15.502905297209448 5.447331648699324 -1 1 0
1694 3 5.391754255906244 16.56898037236039 8.422258148556125 -2 1 -1
1130 1 7.789976117514729 17.91432954249263 6.611818812941555 0 0 0
2068 3 9.173670253557857 17.888630105553474 3.2494781608941907 -1 0 1
110 1 8.513805160462079 14.737885794081693 4.646835514392237 1 -1 -1
1618 1 10.372862791280616 17.508788089350627 5.2975446024867345 -2 1 0
1751 3 12.248510284021572 18.290823274580305 4.455679553895244 1 0 1
2239 1 14.14100124751847 17.383960408586706 4.56776993535757 0 1 1
984 3 9.13017566677865 16.23063308432591 6.691113557603153 1 -1 0
1250 1 12.946153732194956 17.87276742275875 7.298274937363142 0 -1 0
879 3 10.515608518154904 18.656103396676244 7.468220557226533 1 0 1
702 1 17.693761236375416 15.310441511139254 3.9962746585075815 0 1 0
2252 3 17.093234261302577 16.14306082666993 6.0461551367873145 -1 -1 0
2374 3 14.98199062528827 18.293611955073317 6.5038305827844765 -1 1 1
2088 3 20.274726024377117 15.33805738583653 5.06869517639717 1 1 0
2047 1 21.36460279906993 17.03269484931648 4.306047264712676 0 0 0
844 1 3.582463098504169 19.9612737583146 6.123570748517936 -1 0 0
63 3 1.6173235734072797 20.63646603388051 6.967459085186196 1 -1 0
443 1 6.24372673310452 19.780232725833375 4.451763497401034 1 1 1
1986 3 5.107175786066743 19.36528417283509 7.349920405260234 -2 0 1
1482 3 2.979649930082034 20.532070529077465 4.341988768434187 1 0 0
603 1 5.5963539247146965 23.467357504674624 5.452343306967358 2 -1 0
1582 3 5.52374198498137 21.721848351392605 3.9895835650990263 1 -1 1
433 1 10.593790260361223 22.976247225948978 4.782556198162206 -1 0 1
1693 3 10.53684050540554 20.502017769544153 4.809561069096634 -1 2 0
1615 1 7.983300212263699 22.053645248373044 4.650359747323165 0 0 0
1702 1 12.460576615072775 20.623034976430755 4.419605193465685 0 0 0
1985 3 14.55921541016122 21.08189042711431 4.439732565803517 2 -1 2
1115 1 13.486155107980192 23.354533003089156 5.174159559155086 -1 0 0
392 3 11.751418076626628 21.98328659800097 6.114223868262846 0 1 0
539 1 16.996102933389636 18.747403246601472 5.207259473279017 -1 -1 1
1474 3 18.410277637077918 20.80417930482157 4.67213750886025 0 1 1
260 3 15.617149544611369 22.394497337991588 6.802002609977798 -1 0 0
895 3 17.90133846477032 18.845386822374426 7.23386809848507 0 -1 2
1737 1 16.46393634946004 22.346698163782644 4.892067055911778 1 2 0
2203 1 20.606908852301416 19.5316053544985 4.812802584913406 1 0 1
703 1 2.7300828078964323 22.47902092970183 5.498855259242739 1 0 0
152 3 20.880410375266358 21.458163697241666 6.699954746675053 -1 -1 0
861 3 20.87616295117528 18.077980486554274 6.315873844132886 0 -1 1
2309 1 22.82583180598906 22.194347081191747 7.106934962497411 2 2 0
1552 3 1.9031530833876307 24.050939013655263 6.569448796071667 2 1 0
250 1 2.801342065204106 28.69295180068115 4.263377758217388 0 0 -1
2167 3 4.171291338173319 24.182669702231927 4.215253798083663 1 0 1
1273 3 3.7370943523813986 28.330594982544273 6.514891135559146 -1 0 0
1228 1 5.609397776329207 27.480508308964367 5.3768074729605475 -1 -1 1
143 1 2.9859304115406093 25.677493964401968 6.279822455191947 1 -1 0
1978 3 11.114078446893288 24.80724333150487 5.964958498762275 -1 0 0
556 3 7.354726095124568 26.62385893170099 4.339249134363312 2 0 0
330 1 9.051050483323955 25.474911635617886 5.912382801587053 -1 -1 0
2164 3 14.222557592879202 24.329575610738182 3.5022844651455483 2 -1 1
1604 1 12.19258290675846 26.140653845711764 4.855374683604824 0 0 0
1576 3 14.169355091232045 25.044400248089133 6.948148302079762 0 1 1
2228 1 16.414052982874235 24.59054923620652 2.95145450081539 -1 1 0
467 3 18.052004655055008 23.67058153912555 5.552495899496645 -1 0 0
435 1 19.10726184592739 25.783138599782333 5.263273715302117 0 0 0
1307 1 16.657194558821377 24.463308285892538 7.066973500291076 -1 -1 1
2225 1 0.3951270742982456 24.227862916475775 4.929936729819801 -1 0 1
1310 1 19.936946052591402 22.482192711612257 5.173552185658806 0 0 1
1281 3 22.345870416392543 24.105701922594122 8.201121137584762 -1 0 1
2238 1 22.36102770590335 30.172126190921695 5.109020027101402 0 0 1
1881 3 0.9799749751369082 29.697950766077653 4.543717659034935 1 0 1
381 3 6.504701020021043 29.531803282727342 6.189684806631056 1 -1 0
1218 1 4.710757937968502 30.076587171966583 7.304646777967272 0 -1 0
2121 1 8.528897810879101 28.555702046191847 5.360557554037009 0 -1 1
2391 3 10.11734035042745 27.076706604972422 5.333990131307421 0 1 0
39 1 11.219793733668599 29.190491060822247 3.4216321863077823 2 2 0
1073 3 12.218718550204928 30.918791005854164 4.450543212723272 1 0 0
675 3 13.39663914220515 27.76700548940112 5.703000837165317 -1 -1 0
631 1 12.413882046798346 29.86798946413679 6.155977544329311 0 -1 0
1308 1 16.418086095039 28.01816896337621 6.211267504901009 -1 0 0
2197 3 17.958965176480447 27.84439054853816 4.890874763784931 0 -1 2
2175 3 17.925429693803416 30.50298118499185 6.031183897435518 -1 -1 1
656 3 1.275963777504744 26.686337791459795 5.020040039115035 1 0 0
505 1 0.8131849356955989 28.418664627129544 6.266075243846955 1 0 -1
1262 3 21.085927071457675 31.766368022662967 6.303720152739286 -1 -1 1
1762 3 21.32911112143428 28.2582797160047 6.889743911416519 0 0 0
2037 1 19.797999210911726 28.95808938816739 5.570778066282807 -1 -1 1
1838 1 22.399341216736765 28.762194597758217 8.96816587929505 0 -2 0
1570 3 4.639922761182818 34.302862683589176 4.654283787629173 0 -1 0
1776 3 1.7549288603146558 33.49088070821567 6.208283376857286 0 -1 1
602 1 1.8509021461013462 32.04207874560569 4.593138655318717 0 -1 -1
1396 3 4.206262476195931 31.307631887121367 5.2347294281334715 1 0 0
1636 1 6.347204153163003 31.744818117114445 5.407741534707836 0 -1 0
2224 1 4.090044865154687 33.91545014416631 6.592276636021018 2 -1 0
232 1 9.62401814246514 34.73285017624933 3.421842711398868 0 -1 -1
2218 1 10.145420829777967 32.193759874844304 5.2533344590494675 0 0 0
1079 3 8.429091988474129 33.46624708467212 5.149430048269597 1 0 0
100 3 9.4639661496014 34.88150071849412 8.786147852321436 -1 0 -1
863 3 11.470145995840264 34.01070925168698 4.182979197743948 0 0 0
160 3 16.127680566632772 34.187573174837866 5.57980769537391 1 -1 0
644 1 11.383786354005576 0.020512040187151748 6.817452815033417 -1 0 0
1910 1 13.327599590746296 32.931530995192965 4.88196092855401 2 -1 0
1179 3 11.937358395599684 33.165838271815666 6.8632853056395575 0 0 0
2151 3 19.067473751982753 33.73224543726036 4.242688149334956 0 -2 1
2018 1 16.432442683214525 32.00082683609589 5.887299630976327 -1 -1 1
1786 3 14.599232825907222 30.963517709462014 6.001267828003017 0 1 0
2147 1 19.157649460216778 32.28612835165493 5.705303881667817 0 0 0
701 1 21.255730620885018 32.76507110894433 4.532706524377216 -1 0 1
1591 3 22.34946514672426 34.476409813088196 4.974970148130777 0 -1 1
2219 1 22.87167019377544 32.94188844836687 6.890847970347654 -2 0 0
1385 3 3.0827707955547816 1.1438349214766177 6.156788837905383 0 0 0
15 1 5.162415601405341 1.3176952801020756 9.443259296555896 1 0 1
3 1 2.3231721311673406 2.6158325641104723 7.823699950830769 0 0 0
1068 3 2.943929724846458 0.9420615495967357 9.410890664855934 0 0 0
596 3 1.3329152071205708 33.729704481361395 11.609553450211566 -2 0 0
1206 1 6.64955544941364 4.1545434957929634 7.032594964564613 -1 1 1
544 1 8.104483723895354 4.062576579765058 10.23857253985153 2 1 0
2093 3 7.6689756623661935 2.2748155004723856 8.437368450272684 -1 0 0
690 3 9.911838071192621 1.368559804085231 5.914186754594247 0 0 0
2012 1 11.038364832370096 1.51632233190857 9.678989290311593 0 0 0
1453 3 10.868298985177375 3.1452822995076795 11.110132673828538 -1 2 0
142 1 12.08366874969279 2.820651931331852 6.112479296290802 0 1 0
1981 3 15.872208778212928 1.7561763239178751 7.389693140971279 0 1 1
1386 3 12.894577225312647 0.42847018865885217 9.379892051110563 1 0 0
415 1 17.02917724153665 3.143011133323976 6.236471318493073 0 0 0
351 3 19.028078752202404 0.22428027700199601 9.03432094224767 0 0 0
832 1 16.821976997155772 2.1876033213615447 9.603686435346399 0 1 0
1490 3 17.999529237653967 3.4660034203918038 8.567312786524576 0 1 0
1189 3 20.147341366899493 1.6948902622074324 6.015109408065298 1 1 0
321 1 20.10791511842001 2.2161454585877287 8.038256318098767 2 1 0
679 3 0.33221477895495877 1.7253701741356748 7.354041472674991 -1 0 0
917 1 20.97912321116208 34.26987318678578 8.962759518997819 -1 0 0
164 3 21.369194661758293 4.257708707193007 8.429374953489706 2 0 0
408 1 22.459997943018106 0.4493914661999834 11.631956745310891 0 1 0
918 1 23.088934385255456 3.091003603027625 8.955876952517272 1 1 1
11 1 1.8634833101990058 6.050157424213843 7.084111915762271 -1 0 0
1543 1 3.26051019051159 4.314706447436465 10.024952111980307 -1 1 0
790 3 4.360481264056968 3.3560338945652792 8.01471529473072 1 0 -1
463 3 3.749413149637115 6.785301044555665 8.604667231912074 1 1 0
490 3 7.969703789525776 5.4085057198765565 8.361057896284954 -1 2 -1
2302 1 5.720067099220465 6.489647023883686 8.890795824150407 1 1 0
2362 3 5.903498733272069 5.705181830032888 11.025615726174868 0 1 1
458 3 10.341075799263763 5.769237539009135 6.835924384506681 -1 1 0
2253 3 9.167477283838023 5.722190348665465 11.368415716000007 -2 2 1
1744 1 9.373881378353865 3.7308971991250224 7.22036879518999 0 0 0
943 1 9.536936145159975 6.678407479404625 8.971926693837215 2 1 0
30 1 13.818298323133554 1.888196638277452 8.428597328285322 0 0 0
1885 3 14.250689585001842 4.8078831539934495 8.52968590917092 0 1 1
171 3 11.219008287870675 2.852409745835985 8.147314555464412 -1 0 0
484 3 16.740324176730713 5.4571364284496475 6.563295902946507 0 0 0
1133 1 16.21586560087418 5.1786547229900615 8.632917852646436 -1 0 0
612 1 22.433847252349562 2.994976319193916 6.119764161631622 -1 1 1
1932 1 18.86660644726495 5.4633072338574005 7.44751344041287 0 0 0
2090 3 1.574982328596805 4.086711130466708 8.735548118794988 1 2 1
2210 1 3.089846743432983 7.284059790112707 10.46500154892556 0 1 1
1713 1 1.5430932133035047 9.073122228574123 6.311929776454403 -1 1 0
1562 3 1.1736055180906786 8.147290372693226 7.995984121213007 1 1 0
254 3 2.0778754664481744 11.105526263322885 7.807177316472475 -3 1 0
910 1 4.317204902081746 9.644133262865937 8.401095618004028 2 0 1
409 1 4.458389494119173 10.304923721628267 11.420366153364467 0 0 0
1289 3 6.179517111729503 8.89109912188079 8.819359807293212 -2 -1 0