FLiNa to FNa ratio: 1

100 atoms 
0  bonds
0  angles0  dihedrals
0  impropers

3 atom type
0  bond types
0  angle types
0  dihedral types
0  improper types

0.0 12.048605005250751 xlo xhi
0.0 12.048605005250751 ylo yhi
0.0 12.048605005250751 zlo zhi

Masses

1 18.998
2 6.941
2 22.99

Atoms

1 1 42.507 -276.607 118.162
2 1 -123.847 141.62 189.951
3 1 -28.539 122.433 -32.971
4 1 9.441 185.269 132.33 
5 1 -128.674 270.023 -28.128
6 1 -13.886 322.518 89.101
7 1 -226.829 292.496 -95.73 
8 1 -13.666 200.385 69.294
9 1 99.383 -47.797 10.007
10 1 144.944 67.757 -44.682
11 1 76.202 -62.468 62.202
12 1 179.274 378.496 45.509
13 1 -107.385 78.75 -173.533
14 1 -12.383 7.548 130.05 
15 1 94.431 4.979 -54.652
16 1 225.882 83.625 99.198
17 1 6.606 244.934 90.627
18 1 215.002 -64.112 -13.203
19 1 -70.101 -174.373 -27.076
20 1 120.608 -19.684 5.553
21 1 25.211 37.448 96.524
22 1 343.962 -99.219 -158.805
23 1 191.715 181.082 335.058
24 1 -17.936 323.782 23.115
25 1 353.062 59.875 18.839
26 1 149.572 177.841 199.885
27 1 -51.93 -99.097 -1.491
28 1 153.513 -8.224 5.571
29 1 74.225 101.054 176.142
30 1 90.382 141.415 166.875
31 1 -34.125 8.86 202.045
32 1 -28.678 -52.393 -69.822
33 1 87.282 6.058 -161.441
34 1 -94.941 -3.095 82.704
35 1 150.036 -39.34 320.473
36 1 193.06 -35.286 -192.013
37 1 119.284 -72.52 -9.183
38 1 222.973 -25.945 73.223
39 1 99.463 332.892 198.701
40 1 -117.088 -79.43 11.418
41 1 58.764 42.747 -65.358
42 1 257.465 -62.399 42.806
43 1 -27.315 -27.853 41.71 
44 1 101.817 -89.9 88.548
45 1 149.183 245.542 -9.185
46 1 282.611 147.835 32.67 
47 1 35.462 242.448 153.828
48 1 26.179 -122.253 -278.396
49 1 -2.196 138.686 82.319
50 1 50.223 130.417 294.489
51 3 122.206 99.331 1.025
52 3 28.106 -56.109 -11.764
53 3 360.408 135.492 27.765
54 3 -209.222 289.458 -223.12 
55 3 289.633 157.84 -136.505
56 3 -86.09 -144.651 129.681
57 3 30.459 18.939 -94.946
58 3 -48.72 107.3 -112.559
59 3 -8.862 275.905 133.27 
60 3 5.256 186.514 -212.31 
61 3 310.356 -101.691 155.089
62 3 -40.091 0.952 -143.495
63 3 -12.126 95.537 39.552
64 3 98.265 376.077 272.865
65 3 -122.699 145.283 165.124
66 3 -82.12 -23.384 -54.453
67 3 -8.918 219.626 -210.946
68 3 -123.521 -58.175 315.793
69 3 -43.074 -73.327 -79.524
70 3 206.95 -52.925 -176.236
71 3 -74.524 206.005 140.268
72 3 -168.507 202.102 244.855
73 3 -32.952 33.864 218.727
74 3 -45.555 143.131 111.708
75 3 44.732 173.047 379.662
76 3 120.014 -140.274 224.444
77 3 -1.947 121.701 105.053
78 3 129.863 39.227 -100.773
79 3 31.278 -241.565 -25.951
80 3 45.026 -95.976 154.605
81 3 114.814 141.351 180.33 
82 3 79.217 -79.522 233.772
83 3 438.131 298.072 -236.08 
84 3 -4.735 123.854 20.184
85 3 25.465 117.394 140.573
86 3 329.769 -12.61 103.984
87 3 -70.289 -187.429 53.576
88 3 1.449 212.688 418.015
89 3 26.765 234.73 244.078
90 3 -238.674 376.534 26.837
91 3 13.504 17.258 407.495
92 3 73.203 399.666 290.103
93 3 239.472 109.063 -51.008
94 3 -84.543 -89.626 -97.36 
95 3 27.714 -28.067 201.071
96 3 268.624 42.699 -1.422
97 3 94.755 359.952 165.07 
98 3 226.611 -412.143 468.116
99 3 72.628 315.155 109.567
100 3 134.874 112.833 74.024