LAMMPS (29 Sep 2021 - Update 2)
OMP_NUM_THREADS environment is not set. Defaulting to 1 thread. (src/comm.cpp:98)
  using 1 OpenMP thread(s) per MPI task
Reading data file ...
  orthogonal box = (0.0000000 0.0000000 0.0000000) to (11.651295 11.651295 11.651295)
  1 by 1 by 1 MPI processor grid
WARNING: Atom style in data file differs from currently defined atom style (src/read_data.cpp:516)
  reading atoms ...
  100 atoms
  read_data CPU = 0.001 seconds
Changing box ...
  orthogonal box = (0.0000000 0.0000000 0.0000000) to (12.048605 11.651295 11.651295)
  orthogonal box = (0.0000000 0.0000000 0.0000000) to (12.048605 12.048605 11.651295)
  orthogonal box = (0.0000000 0.0000000 0.0000000) to (12.048605 12.048605 12.048605)
NEQUIP is using device cuda
NequIP Coeff: type 1 is element F
NequIP Coeff: type 2 is element Li
NequIP Coeff: type 3 is element Na
Loading model from FLiNa_f_pyt10.2
Freezing TorchScript model...
Replicating atoms ...
  orthogonal box = (0.0000000 0.0000000 0.0000000) to (24.097210 36.145815 48.194420)
  1 by 1 by 1 MPI processor grid
  2400 atoms
  replicate CPU = 0.001 seconds
WARNING: Using 'neigh_modify every 1 delay 0 check yes' setting during minimization (src/min.cpp:188)
Neighbor list info ...
  update every 1 steps, delay 0 steps, check yes
  max neighbors/atom: 2000, page size: 100000
  master list distance cutoff = 7
  ghost atom cutoff = 7
  binsize = 3.5, bins = 7 11 14
  1 neighbor lists, perpetual/occasional/extra = 1 0 0
  (1) pair nequip, perpetual
      attributes: full, newton off
      pair build: full/bin/atomonly
      stencil: full/bin/3d
      bin: standard
Setting up cg style minimization ...
  Unit style    : metal
  Current step  : 0
Per MPI rank memory allocation (min/avg/max) = 4.720 | 4.720 | 4.720 Mbytes
Step Temp E_pair E_mol TotEng Press 
       0            0   -6923.7124            0   -6923.7124            0 
       1            0   -7177.9888            0   -7177.9888            0 
       2            0   -7390.8027            0   -7390.8027            0 
       3            0   -7582.2231            0   -7582.2231            0 
       4            0   -7762.3428            0   -7762.3428            0 
       5            0   -7932.5269            0   -7932.5269            0 
       6            0   -8093.2437            0   -8093.2437            0 
       7            0   -8244.3232            0   -8244.3232            0 
       8            0   -8386.1846            0   -8386.1846            0 
       9            0   -8520.7803            0   -8520.7803            0 
      10            0   -8650.6982            0   -8650.6982            0 
      11            0     -8779.71            0     -8779.71            0 
      12            0   -8910.1572            0   -8910.1572            0 
      13            0   -9032.1807            0   -9032.1807            0 
      14            0   -9145.2354            0   -9145.2354            0 
      15            0   -9249.1494            0   -9249.1494            0 
      16            0   -9353.8457            0   -9353.8457            0 
      17            0   -9455.1484            0   -9455.1484            0 
      18            0   -9556.7627            0   -9556.7627            0 
      19            0    -9639.874            0    -9639.874            0 
      20            0   -9712.6895            0   -9712.6895            0 
      21            0   -9774.6436            0   -9774.6436            0 
      22            0   -9826.5332            0   -9826.5332            0 
      23            0   -9867.2451            0   -9867.2451            0 
      24            0   -9901.3281            0   -9901.3281            0 
      25            0   -9934.2188            0   -9934.2188            0 
      26            0    -9970.835            0    -9970.835            0 
      27            0   -10004.437            0   -10004.437            0 
      28            0   -10034.791            0   -10034.791            0 
      29            0   -10062.356            0   -10062.356            0 
      30            0    -10085.04            0    -10085.04            0 
      31            0   -10105.106            0   -10105.106            0 
      32            0   -10121.019            0   -10121.019            0 
      33            0   -10135.351            0   -10135.351            0 
      34            0   -10147.693            0   -10147.693            0 
      35            0   -10159.159            0   -10159.159            0 
      36            0    -10170.61            0    -10170.61            0 
      37            0   -10183.479            0   -10183.479            0 
      38            0   -10199.047            0   -10199.047            0 
      39            0   -10208.907            0   -10208.907            0 
      40            0   -10217.345            0   -10217.345            0 
      41            0   -10225.153            0   -10225.153            0 
      42            0   -10232.348            0   -10232.348            0 
      43            0   -10238.175            0   -10238.175            0 
      44            0   -10243.704            0   -10243.704            0 
      45            0   -10247.284            0   -10247.284            0 
      46            0    -10249.29            0    -10249.29            0 
      47            0   -10252.221            0   -10252.221            0 
      48            0   -10254.802            0   -10254.802            0 
      49            0   -10257.749            0   -10257.749            0 
      50            0   -10259.357            0   -10259.357            0 
      51            0   -10261.238            0   -10261.238            0 
      52            0   -10263.828            0   -10263.828            0 
      53            0   -10266.356            0   -10266.356            0 
      54            0   -10269.364            0   -10269.364            0 
      55            0   -10272.023            0   -10272.023            0 
      56            0   -10274.642            0   -10274.642            0 
      57            0   -10276.928            0   -10276.928            0 
      58            0    -10278.88            0    -10278.88            0 
      59            0   -10281.425            0   -10281.425            0 
      60            0   -10284.816            0   -10284.816            0 
      61            0   -10287.156            0   -10287.156            0 
      62            0   -10289.375            0   -10289.375            0 
      63            0   -10292.611            0   -10292.611            0 
      64            0   -10295.269            0   -10295.269            0 
      65            0   -10297.839            0   -10297.839            0 
      66            0   -10299.665            0   -10299.665            0 
      67            0   -10300.779            0   -10300.779            0 
      68            0   -10302.135            0   -10302.135            0 
      69            0   -10303.596            0   -10303.596            0 
      70            0   -10304.941            0   -10304.941            0 
      71            0   -10306.062            0   -10306.062            0 
      72            0   -10307.072            0   -10307.072            0 
      73            0   -10308.097            0   -10308.097            0 
      74            0   -10309.315            0   -10309.315            0 
      75            0   -10310.424            0   -10310.424            0 
      76            0   -10311.018            0   -10311.018            0 
      77            0   -10311.595            0   -10311.595            0 
      78            0   -10312.065            0   -10312.065            0 
      79            0   -10312.678            0   -10312.678            0 
      80            0   -10313.481            0   -10313.481            0 
      81            0   -10314.572            0   -10314.572            0 
      82            0   -10315.715            0   -10315.715            0 
      83            0   -10316.781            0   -10316.781            0 
      84            0   -10317.648            0   -10317.648            0 
      85            0   -10318.314            0   -10318.314            0 
      86            0   -10318.578            0   -10318.578            0 
      87            0   -10318.905            0   -10318.905            0 
      88            0   -10319.205            0   -10319.205            0 
      89            0   -10319.452            0   -10319.452            0 
      90            0   -10319.662            0   -10319.662            0 
      91            0   -10319.885            0   -10319.885            0 
      92            0   -10320.109            0   -10320.109            0 
      93            0   -10320.334            0   -10320.334            0 
      94            0   -10320.577            0   -10320.577            0 
      95            0   -10320.771            0   -10320.771            0 
      96            0   -10321.054            0   -10321.054            0 
      97            0   -10321.367            0   -10321.367            0 
      98            0   -10321.723            0   -10321.723            0 
      99            0   -10322.056            0   -10322.056            0 
     100            0   -10322.322            0   -10322.322            0 
     101            0   -10322.504            0   -10322.504            0 
     102            0   -10322.729            0   -10322.729            0 
     103            0   -10322.949            0   -10322.949            0 
     104            0   -10323.152            0   -10323.152            0 
     105            0   -10323.375            0   -10323.375            0 
     106            0   -10323.578            0   -10323.578            0 
     107            0   -10323.721            0   -10323.721            0 
     108            0   -10323.868            0   -10323.868            0 
     109            0   -10324.006            0   -10324.006            0 
     110            0   -10324.178            0   -10324.178            0 
     111            0   -10324.417            0   -10324.417            0 
     112            0   -10324.761            0   -10324.761            0 
     113            0    -10325.13            0    -10325.13            0 
     114            0   -10325.585            0   -10325.585            0 
     115            0   -10326.271            0   -10326.271            0 
     116            0   -10327.281            0   -10327.281            0 
     117            0   -10328.699            0   -10328.699            0 
     118            0   -10330.206            0   -10330.206            0 
     119            0   -10331.158            0   -10331.158            0 
     120            0    -10331.48            0    -10331.48            0 
     121            0   -10332.003            0   -10332.003            0 
     122            0   -10332.441            0   -10332.441            0 
     123            0   -10332.885            0   -10332.885            0 
     124            0   -10333.418            0   -10333.418            0 
     125            0   -10333.942            0   -10333.942            0 
     126            0   -10334.393            0   -10334.393            0 
     127            0   -10334.825            0   -10334.825            0 
     128            0   -10335.267            0   -10335.267            0 
     129            0   -10335.737            0   -10335.737            0 
     130            0   -10336.214            0   -10336.214            0 
     131            0   -10336.579            0   -10336.579            0 
     132            0   -10336.923            0   -10336.923            0 
     133            0    -10337.26            0    -10337.26            0 
     134            0   -10337.557            0   -10337.557            0 
     135            0   -10337.869            0   -10337.869            0 
     136            0   -10338.229            0   -10338.229            0 
     137            0   -10338.637            0   -10338.637            0 
     138            0   -10339.046            0   -10339.046            0 
     139            0   -10339.382            0   -10339.382            0 
     140            0   -10339.682            0   -10339.682            0 
     141            0   -10339.959            0   -10339.959            0 
     142            0   -10340.178            0   -10340.178            0 
     143            0   -10340.332            0   -10340.332            0 
     144            0   -10340.437            0   -10340.437            0 
     145            0   -10340.531            0   -10340.531            0 
     146            0   -10340.595            0   -10340.595            0 
     147            0   -10340.647            0   -10340.647            0 
     148            0   -10340.673            0   -10340.673            0 
     149            0   -10340.719            0   -10340.719            0 
     150            0   -10340.751            0   -10340.751            0 
     151            0    -10340.77            0    -10340.77            0 
     152            0   -10340.786            0   -10340.786            0 
     153            0   -10340.808            0   -10340.808            0 
     154            0   -10340.808            0   -10340.808            0 
Loop time of 43.5941 on 1 procs for 154 steps with 2400 atoms

98.7% CPU use with 1 MPI tasks x 1 OpenMP threads

Minimization stats:
  Stopping criterion = energy tolerance
  Energy initial, next-to-last, final = 
     -6923.71240234375  -10340.8076171875  -10340.8076171875
  Force two-norm initial, final = 143.85143 0.30352970
  Force max component initial, final = 6.5826187 0.040210482
  Final line search alpha, max atom move = 1.0000000 0.040210482
  Iterations, force evaluations = 154 242

MPI task timing breakdown:
Section |  min time  |  avg time  |  max time  |%varavg| %total
---------------------------------------------------------------
Pair    | 43.45      | 43.45      | 43.45      |   0.0 | 99.67
Neigh   | 0.10382    | 0.10382    | 0.10382    |   0.0 |  0.24
Comm    | 0.013123   | 0.013123   | 0.013123   |   0.0 |  0.03
Output  | 0.0046737  | 0.0046737  | 0.0046737  |   0.0 |  0.01
Modify  | 0          | 0          | 0          |   0.0 |  0.00
Other   |            | 0.02212    |            |       |  0.05

Nlocal:        2400.00 ave        2400 max        2400 min
Histogram: 1 0 0 0 0 0 0 0 0 0
Nghost:        4558.00 ave        4558 max        4558 min
Histogram: 1 0 0 0 0 0 0 0 0 0
Neighs:         0.00000 ave           0 max           0 min
Histogram: 1 0 0 0 0 0 0 0 0 0
FullNghs:      194702.0 ave      194702 max      194702 min
Histogram: 1 0 0 0 0 0 0 0 0 0

Total # of neighbors = 194702
Ave neighs/atom = 81.125833
Neighbor list builds = 9
Dangerous builds = 0
Setting up Verlet run ...
  Unit style    : metal
  Current step  : 0
  Time step     : 0.001
Per MPI rank memory allocation (min/avg/max) = 3.978 | 3.978 | 3.978 Mbytes
Step Temp E_pair E_mol TotEng Press 
       0         1500   -10340.806            0    -9875.663    11835.421 
     100     759.3464   -10077.967            0   -9842.4972    5991.4561 
     200    860.00019   -10049.007            0    -9782.325    6785.6427 
     300    990.23459   -10017.297            0     -9710.23    7813.2287 
     400     1119.302   -9976.5723            0   -9629.4822     8831.607 
     500    1236.1784    -9929.127            0   -9545.7941    9753.7941 
     600     1364.131   -9888.0977            0   -9465.0873    10763.376 
     700    1494.2698   -9857.8584            0   -9394.4927    11790.208 
     800    1556.4531   -9830.2021            0   -9347.5537    12280.852 
     900     1559.828   -9817.1719            0   -9333.4769     12307.48 
    1000    1523.6614   -9822.6475            0   -9350.1675    12022.116 
    1100    1474.0033   -9832.9316            0   -9375.8505    11630.299 
    1200    1446.0065   -9835.8555            0    -9387.456    11409.397 
    1300    1489.6272   -9836.7314            0   -9374.8054    11753.576 
    1400    1554.2725   -9838.2773            0   -9356.3051    12263.646 
    1500    1533.5789   -9833.8975            0   -9358.3422    12100.368 
    1600    1485.8323   -9836.2012            0   -9375.4519    11723.634 
    1700    1472.9795   -9840.9775            0   -9384.2138    11622.221 
    1800    1474.7441   -9832.8203            0   -9375.5094    11636.145 
    1900    1515.5865   -9826.4209            0    -9356.445    11958.403 
    2000    1535.6919   -9825.8711            0   -9349.6606     12117.04 
    2100    1492.7173   -9827.4277            0   -9364.5434    11777.958 
    2200    1447.4952   -9832.4355            0   -9383.5744    11421.143 
    2300    1471.2134   -9839.6172            0   -9383.4011    11608.287 
    2400    1531.0608   -9839.7949            0   -9365.0205    12080.499 
    2500    1541.2261   -9833.2627            0   -9355.3361    12160.706 
    2600    1541.4125    -9838.877            0   -9360.8925    12162.177 
    2700    1441.4716    -9821.791            0   -9374.7978    11373.615 
    2800    1488.7274   -9839.0859            0   -9377.4389    11746.477 
    2900    1475.6459   -9827.7109            0   -9370.1204     11643.26 
    3000    1524.0647   -9832.0068            0   -9359.4019    12025.298 
    3100    1520.2148    -9834.126            0   -9362.7148    11994.921 
    3200    1518.1952    -9844.042            0   -9373.2571    11978.986 
    3300    1487.5318   -9843.3779            0   -9382.1016    11737.043 
    3400    1493.0709    -9844.209            0    -9381.215    11780.748 
    3500    1509.3339    -9841.248            0    -9373.211    11909.068 
    3600    1501.0166   -9829.5479            0     -9364.09    11843.442 
    3700    1519.6717   -9835.8584            0   -9364.6157    11990.636 
    3800    1485.4776   -9833.9414            0   -9373.3021    11720.835 
    3900    1494.2669    -9840.915            0   -9377.5502    11790.185 
    4000    1498.7558   -9839.9873            0   -9375.2305    11825.603 
    4100    1517.6556   -9839.8389            0   -9369.2213    11974.728 
    4200     1490.855   -9829.7744            0   -9367.4676    11763.265 
    4300    1465.4717   -9826.6201            0   -9372.1845    11562.983 
    4400    1501.1774   -9838.1465            0   -9372.6388     11844.71 
    4500     1535.027   -9843.4531            0   -9367.4488    12111.793 
    4600    1527.4971   -9837.0088            0   -9363.3395     12052.38 
    4700    1487.0115   -9829.3828            0   -9368.2679    11732.938 
    4800     1495.184   -9839.2061            0   -9375.5568    11797.421 
    4900     1479.319   -9836.4902            0   -9377.7607    11672.242 
    5000    1465.9134   -9829.5713            0   -9374.9988    11566.468 
    5100    1516.5192   -9835.8711            0   -9365.6059    11965.762 
    5200    1533.3186   -9836.5215            0   -9361.0469    12098.314 
    5300    1506.2753   -9829.2227            0   -9362.1341    11884.935 
    5400     1498.902   -9834.6084            0   -9369.8062    11826.757 
    5500    1474.6254   -9838.5957            0   -9381.3216    11635.208 
    5600    1475.2508   -9839.0059            0   -9381.5378    11640.143 
    5700    1526.0481    -9842.665            0    -9369.445    12040.948 
    5800    1514.4195   -9833.2139            0   -9363.5998    11949.194 
    5900    1537.8617   -9845.3984            0   -9368.5151     12134.16 
    6000    1508.7419   -9853.7539            0   -9385.9005    11904.397 
    6100    1477.8502   -9842.4658            0   -9384.1917    11660.652 
    6200    1496.9806   -9834.9287            0   -9370.7224    11811.596 
    6300    1522.6539     -9839.54            0   -9367.3725    12014.167 
    6400    1530.3193    -9842.666            0   -9368.1215    12074.648 
    6500    1498.6985   -9837.6836            0   -9372.9445    11825.152 
    6600    1499.8376   -9844.1328            0   -9379.0405    11834.139 
    6700    1453.3001   -9841.3408            0   -9390.6796    11466.945 
    6800    1470.3712   -9838.0449            0     -9382.09    11601.641 
    6900    1522.1551   -9837.1689            0   -9365.1561     12010.23 
    7000    1499.2638   -9827.1543            0     -9362.24    11829.612 
    7100    1525.8071    -9832.291            0   -9359.1457    12039.046 
    7200    1506.3888   -9837.2041            0   -9370.0803     11885.83 
    7300    1470.0974   -9841.9346            0   -9386.0646    11599.481 
    7400    1462.9675   -9833.3916            0   -9379.7326    11543.224 
    7500    1483.7667   -9829.1631            0   -9369.0543    11707.335 
    7600    1532.2859   -9837.2217            0   -9362.0674    12090.165 
    7700    1496.3494   -9826.9287            0   -9362.9181    11806.616 
    7800    1504.9248   -9835.4971            0   -9368.8273    11874.278 
    7900    1469.0095   -9845.7969            0   -9390.2643    11590.897 
    8000    1450.2087   -9833.0469            0   -9383.3443    11442.553 
    8100    1517.3965   -9837.8428            0   -9367.3056    11972.684 
    8200    1504.7278   -9834.5605            0   -9367.9518    11872.725 
    8300    1496.2715   -9839.1602            0   -9375.1737    11806.002 
    8400    1511.4389   -9854.8359            0   -9386.1462    11925.677 
    8500    1462.0759    -9853.915            0   -9400.5325    11536.189 
    8600    1460.9369   -9850.1211            0   -9397.0917    11527.202 
    8700    1506.5967   -9840.7051            0   -9373.5168    11887.471 
    8800    1513.2278   -9835.1885            0    -9365.944    11939.792 
    8900    1507.6719   -9831.7119            0   -9364.1903    11895.954 
    9000    1481.6739   -9834.1738            0    -9374.714    11690.822 
    9100    1457.1872   -9836.9814            0   -9385.1148    11497.616 
    9200    1482.8356   -9836.8828            0   -9377.0628    11699.989 
    9300    1537.9355   -9843.5391            0   -9366.6328    12134.742 
    9400    1530.0106   -9843.4824            0   -9369.0336    12072.213 
    9500    1505.1029   -9841.2822            0   -9374.5572    11875.684 
    9600    1461.1388   -9829.1299            0   -9376.0379    11528.795 
    9700    1487.6144   -9828.9111            0   -9367.6092    11737.695 
    9800    1514.7256   -9822.7031            0   -9352.9942     11951.61 
    9900     1536.034   -9829.6387            0   -9353.3221    12119.739 
   10000    1504.7284   -9833.5068            0   -9366.8979    11872.729 
   10100    1502.9313   -9834.6338            0   -9368.5822    11858.549 
   10200    1466.3559   -9823.1201            0   -9368.4103     11569.96 
   10300    1487.5065    -9822.292            0   -9361.0235    11736.844 
   10400    1532.5409   -9825.4766            0   -9350.2432    12092.177 
   10500    1528.2133   -9835.9355            0   -9362.0441    12058.031 
   10600    1507.5229   -9846.3652            0   -9378.8898    11894.779 
   10700    1486.6026   -9841.7021            0    -9380.714    11729.712 
   10800    1479.6796   -9837.9385            0   -9379.0971    11675.087 
   10900    1504.3697   -9834.4375            0   -9367.9398    11869.899 
   11000    1525.1549   -9823.8145            0   -9350.8714      12033.9 
   11100    1536.6613   -9833.9805            0   -9357.4693    12124.689 
   11200    1498.4199   -9833.7012            0   -9369.0485    11822.954 
   11300    1491.6479   -9834.3359            0   -9371.7832    11769.521 
   11400    1512.3416   -9839.7979            0   -9370.8281      11932.8 
   11500    1516.6871   -9835.9238            0   -9365.6066    11967.087 
   11600    1534.0206   -9828.6807            0   -9352.9884    12103.853 
   11700    1516.4538   -9825.4365            0   -9355.1916    11965.246 
   11800    1496.0177   -9835.7178            0     -9371.81        11804 
   11900    1497.5822   -9839.2227            0   -9374.8298    11816.343 
   12000     1485.084   -9830.0293            0   -9369.5121    11717.729 
   12100    1520.4893   -9837.9609            0   -9366.4647    11997.087 
   12200    1504.8062    -9835.251            0    -9368.618    11873.343 
   12300    1491.0966   -9830.5732            0   -9368.1915     11765.17 
   12400    1490.1843   -9835.0703            0   -9372.9715    11757.972 
   12500     1483.433   -9840.9541            0   -9380.9488    11704.702 
   12600    1479.5346   -9831.1768            0   -9372.3803    11673.943 
   12700    1520.8293   -9829.9268            0   -9358.3251     11999.77 
   12800    1536.0256   -9835.1201            0   -9358.8061    12119.673 
   12900    1468.6676   -9831.5654            0   -9376.1388    11588.199 
   13000    1487.5791   -9839.8467            0   -9378.5557    11737.416 
   13100    1496.1774   -9834.1113            0   -9370.1541     11805.26 
   13200    1513.4466   -9834.9521            0   -9365.6398    11941.518 
   13300    1488.4097   -9838.8398            0   -9377.2913     11743.97 
   13400     1478.926   -9844.2871            0   -9385.6794    11669.141 
   13500    1522.5282   -9838.2549            0   -9366.1264    12013.175 
   13600     1503.231   -9819.4814            0   -9353.3369    11860.914 
   13700    1548.1636   -9838.4824            0   -9358.4045    12215.445 
   13800    1479.8895   -9834.7656            0   -9375.8592    11676.743 
   13900    1480.8999   -9841.0322            0   -9381.8124    11684.716 
   14000    1496.0807   -9846.7852            0   -9382.8579    11804.497 
   14100    1509.6905   -9841.4834            0   -9373.3358    11911.881 
   14200    1529.2117   -9832.0967            0   -9357.8956    12065.909 
   14300    1503.6193   -9832.2734            0   -9366.0085    11863.978 
   14400    1497.5968   -9843.7178            0   -9379.3204    11816.459 
   14500    1461.1854   -9833.1895            0    -9380.083    11529.162 
   14600    1490.3029   -9832.0557            0     -9369.92    11758.908 
   14700    1496.9278   -9830.2383            0   -9366.0483     11811.18 
   14800    1508.5567   -9837.2656            0   -9369.4696    11902.935 
   14900    1463.0152    -9842.582            0   -9388.9082      11543.6 
   15000    1453.3117   -9845.3008            0    -9394.636    11467.037 
   15100    1505.0907   -9847.9873            0   -9381.2661    11875.588 
   15200    1493.4523   -9835.4053            0    -9372.293    11783.758 
   15300    1541.2499   -9841.5859            0   -9363.6519    12160.894 
   15400     1476.644   -9823.6152            0   -9365.7152    11651.135 
   15500     1487.182   -9834.6768            0   -9373.5089    11734.283 
   15600    1475.9138   -9839.6729            0   -9381.9992    11645.374 
   15700    1507.8233   -9838.9697            0   -9371.4011    11897.149 
   15800    1531.3197   -9833.9336            0   -9359.0789    12082.542 
   15900    1535.2057   -9834.9658            0   -9358.9061    12113.204 
   16000    1518.1965   -9848.6504            0   -9377.8651    11978.996 
   16100    1453.1298     -9835.04            0   -9384.4316    11465.602 
   16200    1511.2136   -9841.2285            0   -9372.6086    11923.899 
   16300    1540.9999    -9844.918            0   -9367.0615    12158.921 
   16400     1513.445   -9846.5918            0   -9377.2799    11941.506 
   16500     1462.783   -9843.8975            0   -9390.2956    11541.768 
   16600    1467.0616    -9842.501            0   -9387.5724    11575.527 
   16700    1501.6509   -9828.8779            0   -9363.2234    11848.446 
   16800    1510.8784   -9833.6084            0   -9365.0924    11921.254 
   16900    1499.2633   -9833.3564            0   -9368.4423    11829.608 
   17000    1506.8708   -9839.2627            0   -9371.9895    11889.634 
   17100    1491.5229   -9850.9326            0   -9388.4187    11768.534 
   17200    1459.9474   -9848.8613            0   -9396.1388    11519.395 
   17300    1475.2948   -9842.5039            0   -9385.0222     11640.49 
   17400     1492.075   -9836.3906            0   -9373.7055    11772.891 
   17500    1496.1032   -9834.1309            0   -9370.1966    11804.674 
   17600    1517.6684   -9838.1895            0   -9367.5679    11974.829 
   17700    1472.2636   -9833.0703            0   -9376.5286    11616.573 
   17800    1482.3424   -9839.2578            0   -9379.5907    11696.098 
   17900    1496.3067   -9824.3652            0   -9360.3679     11806.28 
   18000    1536.7456   -9830.8955            0   -9354.3582    12125.354 
   18100    1522.7535   -9838.2959            0   -9366.0975    12014.952 
   18200    1464.4271   -9826.5098            0   -9372.3981    11554.741 
   18300    1500.9057   -9830.6768            0   -9365.2533    11842.567 
   18400    1496.9915   -9826.1416            0   -9361.9319    11811.683 
   18500    1472.8982   -9834.1152            0   -9377.3767     11621.58 
   18600    1454.7846   -9845.7207            0   -9394.5991    11478.659 
   18700    1468.1678   -9837.7725            0   -9382.5008    11584.256 
   18800    1535.4233   -9843.9551            0   -9367.8278    12114.921 
   18900     1489.274   -9831.0117            0   -9369.1952     11750.79 
   19000    1510.2896    -9847.458            0   -9379.1246    11916.608 
   19100    1474.3779   -9849.0879            0   -9391.8905    11633.255 
   19200    1453.1338   -9851.4443            0   -9400.8347    11465.634 
   19300    1488.4864   -9852.3125            0   -9390.7402    11744.575 
   19400    1485.1043   -9833.0283            0   -9372.5048     11717.89 
   19500     1515.832   -9833.0488            0   -9362.9968     11960.34 
   19600    1530.1501   -9839.4668            0   -9364.9748    12073.314 
   19700    1466.3488    -9835.126            0   -9380.4184    11569.904 
   19800    1502.4161    -9848.709            0   -9382.8171    11854.484 
   19900    1498.6363   -9833.4121            0   -9368.6924    11824.661 
   20000    1503.6797   -9816.5596            0   -9350.2759    11864.454 
   20100    1495.0529   -9819.3643            0   -9355.7557    11796.387 
   20200      1511.88   -9838.3945            0    -9369.568    11929.157 
   20300    1470.8911   -9834.9219            0   -9378.8058    11605.743 
   20400    1479.0614   -9833.8096            0   -9375.1599    11670.209 
   20500    1522.7036   -9835.5449            0    -9363.362    12014.559 
   20600    1544.0829   -9821.1973            0   -9342.3847    12183.247 
   20700    1543.2865   -9824.6074            0   -9346.0419    12176.963 
   20800    1528.9012   -9832.7383            0   -9358.6335    12063.459 
   20900    1494.6314   -9829.7021            0   -9366.2243    11793.061 
   21000    1494.1191   -9832.7275            0   -9369.4086    11789.019 
   21100    1475.8432   -9827.2676            0   -9369.6159    11644.816 
   21200    1525.1351    -9832.334            0   -9359.3971    12033.744 
   21300    1517.9462   -9824.1338            0   -9353.4261    11977.022 
   21400    1520.1077   -9829.2646            0   -9357.8867    11994.076 
   21500     1516.059    -9848.501            0   -9378.3785    11962.131 
   21600    1463.8255   -9840.1182            0   -9386.1931    11549.994 
   21700    1471.0267   -9832.6133            0   -9376.4551    11606.813 
   21800    1492.4509   -9828.9434            0   -9366.1417    11775.856 
   21900    1501.7204   -9829.3896            0   -9363.7135    11848.995 
   22000    1519.4609     -9834.75            0   -9363.5726    11988.973 
   22100    1471.0631   -9833.7578            0   -9377.5884      11607.1 
   22200    1436.4979   -9838.2314            0   -9392.7805    11334.371 
   22300    1467.3701   -9838.0303            0    -9383.006    11577.962 
   22400    1509.0871   -9836.0537            0   -9368.0932     11907.12 
   22500     1520.658   -9832.0352            0   -9360.4866    11998.418 
   22600    1494.4159   -9828.5117            0   -9365.1007    11791.361 
   22700    1479.5904   -9841.1543            0   -9382.3406    11674.383 
   22800    1444.7873   -9833.5918            0   -9385.5704    11399.777 
   22900    1491.7213   -9836.3369            0   -9373.7615      11770.1 
   23000    1475.6143   -9829.5957            0    -9372.015    11643.011 
   23100    1496.3982    -9832.248            0   -9368.2223    11807.001 
   23200    1515.3044   -9823.7812            0   -9353.8928    11956.177 
   23300    1530.6695   -9822.7324            0   -9348.0793    12077.411 
   23400    1505.3026   -9838.9258            0   -9372.1388     11877.26 
   23500    1485.4453    -9841.499            0   -9380.8697     11720.58 
   23600    1517.3035   -9844.0527            0   -9373.5444     11971.95 
   23700    1509.8235   -9835.1904            0   -9367.0016    11912.931 
   23800    1518.1474   -9833.6768            0   -9362.9067    11978.609 
   23900     1500.653   -9831.4619            0   -9366.1168    11840.573 
   24000    1487.8562   -9840.5811            0   -9379.2042    11739.602 
   24100    1492.4415   -9852.7695            0   -9389.9707    11775.782 
   24200    1487.6122   -9849.7949            0   -9388.4937    11737.678 
   24300    1484.5597   -9829.3594            0   -9369.0047    11713.593 
   24400    1494.1117   -9823.6787            0    -9360.362    11788.961 
   24500    1509.9699   -9831.7324            0   -9363.4982    11914.086 
   24600    1510.1789   -9840.1914            0   -9371.8924    11915.735 
   24700    1460.7907   -9837.7881            0   -9384.8041    11526.048 
   24800    1449.0327   -9837.8398            0   -9388.5019    11433.274 
   24900    1513.3925   -9834.3877            0   -9365.0921    11941.092 
   25000    1522.1418   -9830.2822            0   -9358.2735    12010.126 
   25100      1512.57   -9834.0771            0   -9365.0366    11934.602 
   25200    1459.7188   -9833.2139            0   -9380.5622    11517.591 
   25300    1461.4042   -9833.5527            0   -9380.3785    11530.889 
   25400    1508.9885   -9838.9463            0   -9371.0164    11906.342 
   25500    1501.8492   -9834.0215            0   -9368.3054    11850.011 
   25600    1508.5306    -9833.502            0    -9365.714    11902.729 
   25700    1513.4266   -9831.6104            0   -9362.3042     11941.36 
   25800    1521.2583   -9829.4717            0   -9357.7369    12003.155 
   25900    1505.0478   -9826.6504            0   -9359.9425    11875.249 
   26000    1431.8167   -9817.5215            0   -9373.5222    11297.435 
   26100    1514.2919   -9842.9805            0    -9373.406    11948.188 
   26200    1503.1429   -9834.6641            0   -9368.5468    11860.219 
   26300    1537.0147   -9832.5742            0   -9355.9535    12127.477 
   26400    1510.5327    -9827.833            0   -9359.4242    11918.527 
   26500    1468.7502   -9833.4375            0   -9377.9853    11588.851 
   26600    1497.3196   -9841.8271            0   -9377.5157    11814.271 
   26700    1472.8145   -9831.1748            0   -9374.4623    11620.919 
   26800    1496.6969    -9828.292            0   -9364.1736    11809.359 
   26900    1580.5026   -9837.4844            0   -9347.3783    12470.609 
   27000    1525.1579   -9831.1201            0   -9358.1761    12033.924 
   27100      1471.66   -9828.1875            0    -9371.833     11611.81 
   27200    1513.8386   -9843.5576            0   -9374.1237    11944.611 
   27300    1516.5219   -9843.7539            0   -9373.4879    11965.783 
   27400    1510.3632   -9844.6963            0   -9376.3401     11917.19 
   27500    1521.9389   -9850.4756            0   -9378.5298    12008.525 
   27600    1484.8063   -9841.5957            0   -9381.1646    11715.538 
   27700    1487.9584   -9845.0342            0   -9383.6256    11740.409 
   27800    1465.0512   -9833.6279            0   -9379.3228    11559.665 
   27900    1519.3943   -9836.8438            0    -9365.687    11988.447 
   28000    1503.0144   -9834.9521            0   -9368.8748    11859.205 
   28100    1456.0258   -9837.1299            0   -9385.6234    11488.452 
   28200    1497.1188   -9852.1338            0   -9387.8846    11812.687 
   28300    1496.2705   -9826.9287            0   -9362.9426    11805.994 
   28400    1480.0262   -9816.8525            0   -9357.9037    11677.822 
   28500    1487.3398   -9824.7471            0   -9363.5303    11735.528 
   28600    1471.7841   -9832.8291            0   -9376.4361     11612.79 
   28700    1484.5368   -9846.2363            0   -9385.8888    11713.412 
   28800    1472.4367   -9844.9678            0   -9388.3724    11617.938 
   28900    1534.2754   -9840.2529            0   -9364.4817    12105.863 
   29000     1523.894   -9828.2793            0   -9355.7273    12023.951 
   29100    1531.9698   -9833.5156            0   -9358.4593    12087.671 
   29200    1486.8099    -9828.876            0   -9367.8235    11731.347 
   29300    1481.3372   -9835.4189            0   -9376.0636    11688.166 
   29400    1519.5077   -9840.6494            0   -9369.4575    11989.342 
   29500    1532.9017   -9832.4004            0   -9357.0551    12095.025 
   29600    1519.9358   -9826.2051            0   -9354.8805     11992.72 
   29700     1525.066   -9833.0889            0   -9360.1734    12033.199 
   29800    1494.6841   -9840.7129            0   -9377.2187    11793.477 
   29900    1484.1401   -9845.6016            0    -9385.377    11710.282 
   30000    1491.2071   -9844.0625            0   -9381.6465    11766.042 
   30100    1522.4318   -9833.6445            0   -9361.5459    12012.414 
   30200    1524.4043   -9829.2383            0    -9356.528    12027.978 
   30300    1509.7378   -9825.7939            0   -9357.6317    11912.255 
   30400    1527.4453   -9836.2412            0   -9362.5879    12051.972 
   30500    1462.3305   -9829.4072            0   -9375.9457    11538.198 
   30600    1493.7057   -9837.3506            0   -9374.1598    11785.757 
   30700    1499.8925   -9837.7197            0   -9372.6104    11834.573 
   30800    1496.5764   -9837.5518            0   -9373.4708    11808.408 
   30900    1467.6609   -9832.9863            0   -9377.8719    11580.256 
   31000    1493.6138   -9834.5195            0   -9371.3572    11785.032 
   31100    1527.4826   -9834.0195            0   -9360.3547    12052.266 
   31200    1489.0561   -9825.5566            0   -9363.8077     11749.07 
   31300    1487.5618   -9837.7715            0   -9376.4859     11737.28 
   31400    1437.3623   -9833.2354            0   -9387.5164    11341.192 
   31500     1500.313   -9840.8398            0   -9375.6002     11837.89 
   31600    1520.8568   -9829.1807            0   -9357.5704    11999.987 
   31700    1524.2459   -9830.5254            0   -9357.8642    12026.727 
   31800    1480.3464   -9829.8262            0    -9370.778    11680.349 
   31900    1479.6634   -9841.6826            0   -9382.8463    11674.959 
   32000    1489.1395   -9847.5469            0    -9385.772    11749.729 
   32100    1514.9911   -9853.7139            0   -9383.9226    11953.705 
   32200    1511.0604   -9844.7705            0   -9376.1981     11922.69 
   32300    1504.4348   -9832.5869            0   -9366.0691    11870.412 
   32400     1502.344   -9829.9053            0   -9364.0358    11853.916 
   32500    1485.4421   -9829.2227            0   -9368.5944    11720.555 
   32600    1505.7512   -9846.6807            0   -9379.7546    11880.799 
   32700    1480.1634   -9840.6367            0   -9381.6453    11678.904 
   32800    1511.0784    -9835.458            0     -9366.88    11922.833 
   32900    1528.1574   -9830.0811            0    -9356.207     12057.59 
   33000    1482.3238   -9824.4434            0    -9364.782     11695.95 
   33100    1515.4836   -9839.8818            0   -9369.9378    11957.591 
   33200     1508.968   -9841.4707            0   -9373.5471    11906.181 
   33300    1513.2946   -9843.5254            0   -9374.2602    11940.319 
   33400    1523.0155    -9846.498            0   -9374.2184    12017.019 
   33500    1513.7889   -9847.4336            0   -9378.0151    11944.219 
   33600    1485.3398   -9841.8574            0   -9381.2609    11719.747 
   33700    1489.2252   -9830.9873            0   -9369.1859    11750.405 
   33800    1527.3355   -9832.2314            0   -9358.6122    12051.106 
   33900    1515.3475   -9833.1143            0   -9363.2125    11956.516 
   34000    1483.1949   -9836.3848            0   -9376.4533    11702.824 
   34100    1432.7093   -9835.9561            0     -9391.68    11304.478 
   34200    1468.0845   -9841.3486            0   -9386.1028    11583.599 
   34300     1522.289   -9838.6328            0   -9366.5785    12011.287 
   34400    1527.8561   -9839.8086            0   -9366.0279    12055.213 
   34500    1492.9835   -9837.5508            0   -9374.5839    11780.059 
   34600    1478.4698   -9841.3359            0   -9382.8697    11665.542 
   34700    1498.5382   -9839.5234            0   -9374.8341    11823.887 
   34800    1531.7536   -9833.0869            0   -9358.0977    12085.965 
   34900    1483.1397   -9824.0527            0   -9364.1384    11702.388 
   35000    1496.5904   -9838.3135            0   -9374.2282    11808.518 
   35100    1446.7313   -9835.7402            0    -9387.116    11415.116 
   35200    1445.4028   -9842.1348            0   -9393.9225    11404.633 
   35300    1480.4897   -9845.1533            0   -9386.0607    11681.479 
   35400    1505.6546    -9835.167            0   -9368.2709    11880.037 
   35500    1509.3487    -9833.752            0   -9365.7103    11909.185 
   35600    1497.7877   -9837.8896            0    -9373.433    11817.965 
   35700    1453.7442   -9836.2422            0   -9385.4433    11470.449 
   35800    1488.7288   -9849.1777            0   -9387.5302    11746.488 
   35900    1510.4073   -9835.7256            0   -9367.3557    11917.537 
   36000    1527.9439   -9833.4541            0   -9359.6462    12055.906 
   36100    1514.7121   -9833.7266            0   -9364.0218    11951.503 
   36200    1501.3147   -9847.3359            0   -9381.7856    11845.794 
   36300    1476.5196   -9843.9375            0    -9386.076    11650.154 
   36400    1505.7042   -9846.2617            0   -9379.3502    11880.429 
   36500    1486.1451   -9829.4941            0   -9368.6479    11726.101 
   36600    1514.0399   -9830.8467            0   -9361.3503      11946.2 
   36700    1521.0599   -9836.5195            0   -9364.8463    12001.589 
   36800    1502.7271    -9834.208            0   -9368.2197    11856.939 
   36900    1495.3843   -9834.8457            0   -9371.1344    11799.002 
   37000    1469.6252   -9827.9482            0   -9372.2247    11595.755 
   37100    1518.3906   -9833.4795            0    -9362.634    11980.528 
   37200    1551.0248    -9821.459            0   -9340.4938    12238.021 
   37300    1526.6838    -9819.668            0   -9346.2508    12045.963 
   37400    1506.5329   -9827.0527            0   -9359.8843    11886.967 
   37500    1521.1557     -9838.46            0   -9366.7571    12002.345 
   37600    1509.5735   -9844.7119            0   -9376.6006    11910.958 
   37700    1481.7424   -9843.2617            0   -9383.7807    11691.363 
   37800    1471.4679   -9841.4766            0   -9385.1816    11610.294 
   37900     1469.979   -9828.6465            0   -9372.8132    11598.547 
   38000    1523.6829   -9828.8809            0   -9356.3943    12022.285 
   38100    1535.3839   -9831.0713            0   -9354.9563     12114.61 
   38200     1518.415    -9841.001            0    -9370.148     11980.72 
   38300      1501.83   -9844.5127            0   -9378.8026     11849.86 
   38400    1502.7085   -9842.0215            0    -9376.039    11856.792 
   38500    1479.4382   -9831.4316            0   -9372.6651    11673.182 
   38600    1537.9047   -9835.6572            0   -9358.7605    12134.499 
   38700    1544.9631   -9820.4229            0   -9341.3374    12190.192 
   38800    1561.1762   -9831.6582            0   -9347.5451    12318.118 
   38900    1490.3448   -9831.8916            0    -9369.743    11759.238 
   39000    1491.2378   -9835.5293            0   -9373.1038    11766.284 
   39100    1478.9061   -9831.3633            0   -9372.7618    11668.984 
   39200    1485.8315   -9825.5127            0   -9364.7637    11723.627 
   39300    1496.9523   -9822.5439            0   -9358.3464    11811.374 
   39400    1516.5645    -9818.501            0   -9348.2218    11966.119 
   39500     1539.867   -9820.3232            0    -9342.818    12149.983 
   39600    1517.0789   -9831.8193            0   -9361.3806    11970.178 
   39700    1478.3187   -9827.9912            0   -9369.5719    11664.349 
   39800    1508.6165   -9831.5869            0   -9363.7723    11903.407 
   39900      1537.42   -9841.2754            0    -9364.529    12130.675 
   40000    1474.8855   -9841.3584            0   -9384.0036     11637.26 
   40100    1485.2735   -9848.9883            0   -9388.4123    11719.224 
   40200    1486.1536    -9840.623            0   -9379.7741    11726.168 
   40300    1495.4613   -9836.0166            0   -9372.2814    11799.609 
   40400    1497.2984   -9831.7305            0   -9367.4256    11814.104 
   40500    1498.6369   -9818.4717            0   -9353.7517    11824.666 
   40600    1575.6834   -9827.0674            0   -9338.4557    12432.584 
   40700    1529.3837   -9825.9629            0   -9351.7085    12067.266 
   40800    1512.7762   -9832.5918            0   -9363.4873    11936.229 
   40900    1486.4216   -9833.5146            0   -9372.5826    11728.284 
   41000    1512.9497   -9844.3213            0    -9375.163    11937.598 
   41100    1514.2419   -9840.4834            0   -9370.9244    11947.794 
   41200    1529.1084    -9833.373            0   -9359.2041    12065.094 
   41300    1551.0361   -9836.8018            0   -9355.8331     12238.11 
   41400    1488.4793   -9836.3135            0   -9374.7434    11744.519 
   41500     1491.165   -9841.8154            0   -9379.4125     11765.71 
   41600    1480.8847   -9833.8184            0   -9374.6033    11684.596 
   41700    1517.1213   -9833.3584            0   -9362.9065    11970.512 
   41800    1539.3118   -9830.6797            0   -9353.3467    12145.602 
   41900    1515.3026   -9836.9531            0   -9367.0652    11956.163 
   42000    1468.1128   -9842.5791            0   -9387.3245    11583.822 
   42100     1494.927     -9843.75            0   -9380.1805    11795.394 
   42200    1521.3624   -9837.3398            0   -9365.5728    12003.976 
   42300    1512.7112   -9824.7715            0   -9355.6872    11935.715 
   42400    1518.6895   -9830.9707            0   -9360.0326    11982.886 
   42500    1523.0389   -9849.2686            0   -9376.9817    12017.204 
   42600    1504.8954   -9848.5576            0   -9381.8969    11874.047 
   42700    1523.1425   -9850.6914            0   -9378.3724    12018.022 
   42800    1525.6571    -9846.249            0   -9373.1503    12037.862 
   42900    1533.1632   -9831.6836            0   -9356.2572    12097.088 
   43000    1548.0211   -9831.8135            0   -9351.7797    12214.321 
   43100    1491.8955   -9826.5771            0   -9363.9477    11771.474 
   43200    1531.9568   -9845.2344            0   -9370.1821    12087.569 
   43300    1476.0116   -9831.4551            0   -9373.7511    11646.146 
   43400    1520.0121   -9843.3477            0   -9371.9994    11993.322 
   43500    1500.8604   -9835.3418            0   -9369.9324    11842.209 
   43600    1490.2432    -9832.667            0   -9370.5499    11758.437 
   43700    1498.7891    -9843.752            0   -9378.9848    11825.866 
   43800    1457.4316   -9841.7734            0    -9389.831    11499.544 
   43900    1480.8623   -9835.4434            0   -9376.2352    11684.419 
   44000    1496.6303   -9827.4121            0   -9363.3144    11808.833 
   44100    1471.4377   -9821.2949            0   -9365.0093    11610.056 
   44200    1524.3025   -9838.0674            0   -9365.3887    12027.174 
   44300    1485.8315   -9835.2695            0   -9374.5205    11723.628 
   44400    1467.6021   -9844.6621            0   -9389.5659    11579.792 
   44500    1469.3196   -9840.3623            0   -9384.7335    11593.344 
   44600    1486.2724   -9828.4971            0   -9367.6113    11727.106 
   44700    1539.3745   -9836.6152            0   -9359.2628    12146.096 
   44800    1504.3952   -9829.6104            0   -9363.1048      11870.1 
   44900    1496.7369   -9835.5244            0   -9371.3937    11809.674 
   45000    1457.4613   -9832.8887            0   -9380.9371    11499.779 
   45100    1489.1886   -9837.0273            0   -9375.2373    11750.116 
   45200    1529.6494    -9828.459            0   -9354.1222    12069.363 
   45300    1460.8035   -9807.6924            0   -9354.7044    11526.149 
   45400     1504.169   -9819.7773            0   -9353.3419    11868.316 
   45500     1522.421   -9822.6699            0   -9350.5747    12012.329 
   45600     1503.224   -9824.2637            0   -9358.1213    11860.859 
   45700    1508.7716   -9841.0459            0   -9373.1832    11904.631 
   45800    1509.1327   -9847.2754            0   -9379.3008     11907.48 
   45900    1480.8313   -9836.9717            0   -9377.7732    11684.174 
   46000    1527.2552   -9833.1953            0    -9359.601    12050.472 
   46100    1521.2077   -9821.5127            0   -9349.7937    12002.756 
   46200    1556.0449   -9839.0479            0    -9356.526     12277.63 
   46300     1505.271   -9839.5508            0   -9372.7736    11877.011 
   46400    1503.2171   -9836.6191            0   -9370.4789    11860.804 
   46500    1545.4192   -9837.3994            0   -9358.1725    12193.791 
   46600    1490.7697   -9823.3809            0   -9361.1005    11762.591 
   46700    1463.9935   -9823.4697            0   -9369.4925    11551.319 
   46800    1530.8043   -9846.9551            0   -9372.2602    12078.476 
   46900    1497.1114   -9843.1123            0   -9378.8654    11812.629 
   47000    1471.1372   -9837.4629            0   -9381.2705    11607.685 
   47100    1466.3751   -9830.3066            0   -9375.5909    11570.111 
   47200      1515.32   -9827.0957            0   -9357.2024      11956.3 
   47300    1509.6448   -9825.9248            0   -9357.7914    11911.521 
   47400    1464.2072   -9819.8232            0   -9365.7798    11553.006 
   47500    1505.7593   -9831.3975            0   -9364.4689    11880.863 
   47600    1559.3426   -9833.1592            0   -9349.6147     12303.65 
   47700    1521.9183   -9823.3594            0     -9351.42    12008.362 
   47800    1485.2477   -9829.6797            0   -9369.1117    11719.021 
   47900    1486.3942   -9833.9277            0   -9373.0042    11728.067 
   48000    1548.4744   -9847.9639            0   -9367.7896    12217.897 
   48100    1487.8656   -9837.3545            0   -9375.9747    11739.677 
   48200    1469.5991   -9851.4756            0   -9395.7601    11595.549 
   48300    1470.2661     -9845.25            0   -9389.3277    11600.812 
   48400    1472.4152   -9835.4814            0   -9378.8927    11617.769 
   48500    1505.6361   -9835.3291            0   -9368.4387    11879.891 
   48600     1490.028   -9827.3965            0   -9365.3461    11756.739 
   48700    1497.4584   -9833.2207            0   -9368.8662    11815.367 
   48800    1489.8709   -9843.4121            0   -9381.4105    11755.499 
   48900    1463.2662   -9839.5371            0   -9385.7854    11545.581 
   49000    1474.4096   -9830.4512            0    -9373.244    11633.505 
   49100    1508.1365     -9824.21            0   -9356.5442     11899.62 
   49200    1532.1245   -9832.9014            0   -9357.7971    12088.892 
   49300    1493.0526   -9829.9863            0   -9366.9981    11780.604 
   49400    1473.9088   -9837.7568            0    -9380.705    11629.554 
   49500    1479.4845   -9850.3545            0   -9391.5736    11673.548 
   49600    1508.6513   -9842.0254            0      -9374.2    11903.682 
   49700    1517.1534   -9831.6387            0   -9361.1769    11970.766 
   49800    1503.2685   -9835.3867            0   -9369.2306     11861.21 
   49900    1505.8906   -9845.1641            0   -9378.1948    11881.899 
   50000    1497.9404   -9842.3828            0   -9377.8789     11819.17 
Loop time of 7914.24 on 1 procs for 50000 steps with 2400 atoms

Performance: 0.546 ns/day, 43.968 hours/ns, 6.318 timesteps/s
98.5% CPU use with 1 MPI tasks x 1 OpenMP threads

MPI task timing breakdown:
Section |  min time  |  avg time  |  max time  |%varavg| %total
---------------------------------------------------------------
Pair    | 7886.9     | 7886.9     | 7886.9     |   0.0 | 99.65
Neigh   | 20.865     | 20.865     | 20.865     |   0.0 |  0.26
Comm    | 2.5817     | 2.5817     | 2.5817     |   0.0 |  0.03
Output  | 0.015286   | 0.015286   | 0.015286   |   0.0 |  0.00
Modify  | 3.0342     | 3.0342     | 3.0342     |   0.0 |  0.04
Other   |            | 0.8545     |            |       |  0.01

Nlocal:        2400.00 ave        2400 max        2400 min
Histogram: 1 0 0 0 0 0 0 0 0 0
Nghost:        4342.00 ave        4342 max        4342 min
Histogram: 1 0 0 0 0 0 0 0 0 0
Neighs:         0.00000 ave           0 max           0 min
Histogram: 1 0 0 0 0 0 0 0 0 0
FullNghs:      195304.0 ave      195304 max      195304 min
Histogram: 1 0 0 0 0 0 0 0 0 0

Total # of neighbors = 195304
Ave neighs/atom = 81.376667
Neighbor list builds = 1586
Dangerous builds = 0
Setting up Verlet run ...
  Unit style    : metal
  Current step  : 50000
  Time step     : 0.001
Per MPI rank memory allocation (min/avg/max) = 4.228 | 4.228 | 4.228 Mbytes
Step Temp E_pair TotEng f_3 v_tdiff 
   50000         1500   -9842.3838   -9377.2412            0            0 
   51000    1479.0627   -9835.8896   -9377.2396    62.179642  0.047613943 
   52000    1485.9516   -9838.0342   -9377.2479    115.50982  0.072229328 
   53000     1453.219   -9827.8672   -9377.2311    164.93087  0.090810679 
   54000    1491.4698   -9839.7432   -9377.2457    214.79105  0.095778135 
   55000    1490.6392   -9839.4854   -9377.2455    266.53069  0.087029943 
   56000    1518.3073    -9848.082   -9377.2624     316.6911  0.099080559 
   57000    1499.2606   -9842.1689   -9377.2556    364.70749    0.1023833 
   58000    1475.5461   -9834.8008   -9377.2412    413.27294   0.10540708 
   59000    1501.4282   -9842.8428   -9377.2573    460.67876   0.10693975 
   60000    1458.7097   -9829.5967    -9377.258    510.93103  0.095690933 
   61000    1486.8828   -9838.3398   -9377.2648    557.90997  0.093241178 
   62000    1517.2316   -9847.7363   -9377.2503     605.0174  0.094455731 
   63000     1496.663   -9841.3555   -9377.2476    652.07288   0.10878193 
   64000    1471.9022   -9833.6885   -9377.2588    698.32074   0.10215453 
   65000    1513.8908   -9846.7012   -9377.2511    747.71242   0.10566221 
   66000    1510.6229   -9845.6885   -9377.2517    796.04591  0.094998915 
   67000    1514.2259   -9846.8125   -9377.2585    846.50015   0.10509168 
   68000    1496.3886   -9841.2812   -9377.2585    894.37571   0.10767804 
   69000    1493.4633   -9840.3857   -9377.2701    942.21215  0.099237896 
   70000    1494.4229   -9840.6797   -9377.2665    992.04028   0.11067522 
   71000    1481.6231   -9836.7217   -9377.2776    1036.2172    0.1048092 
   72000    1516.5617   -9847.5381   -9377.2598    1082.4227   0.10067934 
   73000    1534.4282   -9853.0977    -9377.279    1131.0535  0.097418533 
   74000    1488.1502   -9838.7344   -9377.2663    1178.2119   0.10416949 
   75000    1521.3177   -9849.0195   -9377.2664    1230.0904   0.10213168 
   76000    1488.7107   -9838.9121   -9377.2702    1277.0207   0.10302143 
   77000    1476.3434   -9835.0693   -9377.2625     1325.383  0.099444378 
   78000     1525.611   -9850.3574   -9377.2729    1377.3026  0.093185771 
   79000    1496.8369   -9841.4248    -9377.263    1429.6598  0.098376876 
   80000    1514.6887   -9846.9629   -9377.2654    1478.3419   0.10353697 
   81000    1484.1304   -9837.5117   -9377.2902    1529.7153    0.1023897 
   82000     1498.698   -9842.0205   -9377.2816    1574.6333   0.10880847 
   83000    1466.8845   -9832.1416   -9377.2679    1622.1605  0.097828348 
   84000    1516.5619   -9847.5576   -9377.2792    1669.8315   0.10486491 
   85000    1501.6864   -9842.9404   -9377.2749    1718.8317  0.096110166 
   86000    1503.7141   -9843.5693    -9377.275    1764.7381   0.10055865 
   87000    1500.7968   -9842.6826   -9377.2929    1815.5916   0.10233174 
   88000    1484.5015    -9837.626   -9377.2894     1864.773   0.10238832 
   89000    1469.0928   -9832.8457   -9377.2872    1911.6726   0.10127737 
   90000    1494.8848   -9840.8496   -9377.2932     1960.512  0.096555714 
   91000    1470.5342   -9833.2959   -9377.2905     2009.215   0.10428087 
   92000    1464.6318   -9831.4521    -9377.277    2056.7892   0.10529527 
   93000    1491.5478   -9839.8213   -9377.2997    2106.8288  0.099628624 
   94000    1471.0089   -9833.4375   -9377.2849    2154.7778  0.095243837 
   95000    1514.8218   -9847.0459   -9377.3071    2203.8516   0.10313128 
   96000    1462.8844   -9830.9307   -9377.2974    2252.5788   0.11272081 
   97000    1474.2277   -9834.4434   -9377.2926    2302.2475    0.1022396 
   98000    1507.7277   -9844.8506   -9377.3116    2349.5393   0.10344741 
   99000    1468.8429   -9832.7705   -9377.2895    2399.9667  0.094248733 
  100000    1496.8166   -9841.4561   -9377.3006    2451.5092   0.10761405 
  101000     1485.064   -9837.8096   -9377.2985    2502.3732   0.11226056 
  102000    1504.1393   -9843.7275   -9377.3013    2552.0403   0.10202183 
  103000    1480.4211   -9836.3711   -9377.2998    2597.7362   0.10757666 
  104000    1482.3651   -9836.9912   -9377.3171    2649.6926  0.096399038 
  105000    1459.3536    -9829.835   -9377.2966    2698.2694  0.094868658 
  106000    1501.8859   -9843.0518   -9377.3243     2746.307  0.096770794 
  107000    1537.4305   -9854.0928   -9377.3431    2796.1634  0.099922484 
  108000    1503.7906   -9843.6348   -9377.3167    2847.4803  0.093709128 
  109000    1504.2861   -9843.7949   -9377.3232    2897.1257   0.10184144 
  110000    1501.2356    -9842.832   -9377.3062    2946.5889   0.10053031 
  111000    1532.5707   -9852.5684   -9377.3257    2994.6611   0.10987281 
  112000    1487.5539   -9838.5908   -9377.3077    3044.6204   0.10374208 
  113000    1493.1354   -9840.3164   -9377.3025    3091.3125   0.09949124 
  114000    1504.3382   -9843.8047   -9377.3168    3142.1274   0.10089787 
  115000    1492.4952   -9840.1289   -9377.3135    3190.0062  0.095693549 
  116000    1473.0183   -9834.0771   -9377.3014     3239.251    0.1033042 
  117000    1470.2118   -9833.2139   -9377.3084     3287.974   0.10365896 
  118000    1521.9948   -9849.2803   -9377.3172    3338.2052  0.092041293 
  119000    1509.6003   -9845.4326    -9377.313    3386.3616   0.10431267 
  120000    1511.9916   -9846.1836   -9377.3224    3437.3756   0.10536542 
  121000    1492.2869   -9840.0596   -9377.3087    3486.1922  0.098388914 
  122000     1483.157   -9837.2383   -9377.3186    3534.1873  0.097373648 
  123000    1491.3178   -9839.7715   -9377.3211    3585.5223  0.097605073 
  124000    1496.3952   -9841.3262   -9377.3014     3635.411  0.096398395 
  125000    1493.5261   -9840.4443   -9377.3092    3686.5577  0.096667038 
  126000    1503.8979    -9843.667   -9377.3156    3735.6228  0.099925659 
  127000    1491.9884    -9839.999   -9377.3407    3783.4635  0.099380073 
  128000    1503.3737   -9843.5205   -9377.3317    3833.3956   0.10025383 
  129000    1511.3131   -9845.9824   -9377.3317    3883.0742  0.097212988 
  130000    1481.3848   -9836.7002   -9377.3301    3931.6569   0.10134493 
  131000    1506.4276   -9844.4697   -9377.3339    3982.9454   0.10684761 
  132000    1510.3065   -9845.6914   -9377.3528    4032.1845   0.10623923 
  133000    1504.1121    -9843.749   -9377.3312    4083.3199   0.10370285 
  134000     1504.016   -9843.7168   -9377.3288    4130.1002   0.10731318 
  135000    1493.6825   -9840.5371   -9377.3535    4180.5192    0.1047293 
  136000    1500.6074    -9842.666    -9377.335    4227.3939   0.10314154 
  137000    1536.6276   -9853.8701   -9377.3694    4274.9451   0.10186426 
  138000    1488.2054   -9838.8145   -9377.3293    4320.9885   0.10875357 
  139000     1514.062   -9846.8525   -9377.3493     4371.046  0.096542628 
  140000    1470.9414   -9833.4678   -9377.3361    4418.8667    0.1007446 
  141000    1501.3134   -9842.8877   -9377.3378    4464.1647  0.089689043 
  142000    1526.0022   -9850.5615   -9377.3558    4510.5958   0.10372565 
  143000    1496.4982   -9841.4131   -9377.3564    4558.7438   0.10442278 
  144000    1511.2754   -9846.0049   -9377.3658     4609.953   0.10282946 
  145000    1489.2863   -9839.1729   -9377.3525    4658.5273  0.096341404 
  146000    1492.8805   -9840.2812   -9377.3464    4707.5593   0.10343899 
  147000    1469.6106   -9833.0742   -9377.3552      4756.55  0.097887076 
  148000    1491.6406   -9839.9082   -9377.3578    4805.8106   0.10118227 
  149000    1493.2229   -9840.4102   -9377.3691    4854.1511   0.10118712 
  150000    1497.0362   -9841.5918   -9377.3682    4901.1029   0.10937716 
  151000    1502.9652   -9843.4287   -9377.3666    4951.9055   0.10480351 
  152000    1492.3143   -9840.1367   -9377.3774    5002.0369    0.1131868 
  153000    1477.2611   -9835.4775   -9377.3861    5051.7072   0.10744097 
  154000    1464.0109   -9831.3623   -9377.3797    5100.2376  0.097493155 
  155000    1485.7732   -9838.1123   -9377.3813    5147.8721   0.10018278 
  156000     1484.941   -9837.8457   -9377.3728    5194.6684   0.10539901 
  157000    1501.5886   -9843.0225   -9377.3872    5243.7449   0.10250664 
  158000    1496.4416   -9841.4229   -9377.3837    5291.6936   0.10704783 
  159000    1501.9551   -9843.1299    -9377.381    5341.1511   0.10340038 
  160000    1491.5642   -9839.9111   -9377.3844    5388.5171  0.099547349 
  161000    1489.9522   -9839.4131   -9377.3862    5436.5632  0.094272726 
  162000    1488.2044   -9838.8809    -9377.396    5484.7083   0.10048799 
  163000    1481.4771   -9836.7725   -9377.3737    5533.0904   0.10625378 
  164000    1471.9068   -9833.8018   -9377.3707    5584.2837   0.10521602 
  165000    1480.9617    -9836.624   -9377.3851    5631.6799   0.10076804 
  166000    1494.7808   -9840.9219   -9377.3977    5680.5686   0.10322722 
  167000    1522.7622   -9849.6084   -9377.4073    5729.9014  0.098627275 
  168000    1496.8904    -9841.582   -9377.4037    5779.8508  0.095527345 
  169000    1525.5632   -9850.4785   -9377.4089    5828.3652  0.092566091 
  170000    1479.6034   -9836.2129   -9377.3951    5878.5804  0.092133288 
  171000    1506.6819   -9844.6133   -9377.3986    5927.0716   0.10179845 
  172000    1492.4135   -9840.1943   -9377.4042    5977.1974   0.10414356 
  173000    1486.8735   -9838.4785   -9377.4063    6028.8233   0.10222597 
  174000    1510.1702   -9845.7012   -9377.4048    6075.0459   0.10217139 
  175000    1496.6666   -9841.5107   -9377.4018    6125.4107  0.098558637 
  176000    1487.3863   -9838.6445   -9377.4133    6174.4274   0.10494137 
  177000    1490.7149   -9839.6758   -9377.4124    6224.6719  0.099495875 
  178000    1490.3258    -9839.541   -9377.3983    6274.4858     0.101063 
  179000    1488.3165    -9838.918   -9377.3983    6325.2042  0.091924745 
  180000    1520.1355   -9848.7988   -9377.4123     6374.504   0.10480225 
  181000    1486.4462   -9838.3721   -9377.4324    6422.0786  0.098886467 
  182000     1478.108    -9835.751   -9377.3969    6469.6972   0.10614155 
  183000    1466.5532    -9832.165   -9377.3941    6516.9746  0.099470312 
  184000    1481.1432   -9836.7002    -9377.405    6565.1511   0.10231019 
  185000    1496.3464   -9841.4199   -9377.4102    6615.2186  0.097331256 
  186000    1500.2894   -9842.6396   -9377.4073    6664.5388   0.10114022 
  187000    1500.0748   -9842.5674   -9377.4016    6714.3087  0.095813137 
  188000    1479.6967   -9836.2441   -9377.3975    6763.8999  0.099445214 
  189000    1513.5349   -9846.7441   -9377.4044    6814.7893  0.097646153 
  190000    1514.6961   -9847.0957   -9377.3959    6863.7389  0.098103353 
  191000    1490.9845     -9839.75    -9377.403     6912.775  0.097852301 
  192000    1494.3388   -9840.7871      -9377.4    6961.3327  0.094580287 
  193000    1482.0912   -9836.9824   -9377.3932    7010.5726  0.099393417 
  194000    1495.1781   -9841.0518   -9377.4044    7059.9732  0.099844247 
  195000    1525.0163   -9850.3223   -9377.4222     7111.063   0.10644911 
  196000     1484.406   -9837.7188   -9377.4117    7160.5078   0.10748073 
  197000    1476.1439   -9835.1641   -9377.4191    7209.9301  0.097653686 
  198000    1506.0053   -9844.4209   -9377.4161    7259.4384  0.092606704 
  199000    1489.2312   -9839.2129   -9377.4096    7306.2183  0.096064762 
  200000    1508.6302   -9845.2305   -9377.4117     7354.975  0.097550962 
  201000     1533.577   -9852.9775   -9377.4228    7404.1583  0.096857636 
  202000    1510.7741    -9845.915   -9377.4314      7455.53   0.09851401 
  203000    1519.7611   -9848.6934   -9377.4229    7506.2233  0.092556816 
  204000    1471.0491   -9833.5791    -9377.414    7556.8287  0.098548051 
  205000    1510.2488     -9845.75   -9377.4293    7604.2383    0.1017562 
  206000    1497.9788   -9841.9287   -9377.4128    7652.5563   0.10345029 
  207000    1483.4331   -9837.4258   -9377.4205    7700.4484   0.10562673 
  208000    1521.6985   -9849.3018   -9377.4305    7746.8442   0.10654522 
  209000    1486.5107   -9838.3887    -9377.429     7795.848  0.097062855 
  210000    1500.9584   -9842.8564   -9377.4166    7842.1499   0.11199729 
  211000    1489.6672   -9839.3643   -9377.4258    7890.9161   0.10198264 
  212000     1518.236   -9848.2188   -9377.4212    7939.9914   0.10686556 
  213000    1520.2657   -9848.8721   -9377.4452    7987.7936   0.10642098 
  214000    1474.1557   -9834.5518   -9377.4233    8035.8863  0.097274174 
  215000    1519.0671   -9848.4863   -9377.4311    8084.4966  0.095277223 
  216000     1487.856   -9838.8018   -9377.4249    8135.9715   0.10336097 
  217000    1464.2522   -9831.4795   -9377.4221    8186.4912    0.1072425 
  218000    1486.9157   -9838.5176   -9377.4323    8238.2778   0.10390493 
  219000    1481.6881   -9836.8857   -9377.4215    8287.5732  0.096330237 
  220000    1508.9409   -9845.3193   -9377.4042     8335.446   0.10465375 
  221000    1508.8469   -9845.3145   -9377.4284    8383.2363   0.11387676 
  222000    1521.8972   -9849.3545   -9377.4217    8429.9805   0.11125499 
  223000    1506.7968   -9844.6963    -9377.446    8479.6522   0.10160563 
  224000    1510.0935   -9845.6953   -9377.4227    8530.6845   0.10339479 
  225000    1498.2301    -9842.041   -9377.4472    8578.7819   0.10479347 
  226000    1501.3376   -9842.9902   -9377.4328    8629.6683  0.088977246 
  227000    1528.5657   -9851.4385   -9377.4378    8679.1164  0.092707046 
  228000    1487.4816   -9838.6924   -9377.4316    8726.1897   0.09968451 
  229000    1492.5891   -9840.2676    -9377.423    8772.5136   0.10037756 
  230000    1505.5291   -9844.2881   -9377.4309    8822.5964    0.1002326 
  231000    1483.3061   -9837.3994   -9377.4335    8871.8136   0.10382874 
  232000    1468.1348   -9832.6631   -9377.4017    8923.4187   0.10217246 
  233000    1515.2625   -9847.3223   -9377.4468     8973.281  0.093466757 
  234000    1487.4207   -9838.6729    -9377.431    9023.2553  0.098556475 
  235000    1461.1956   -9830.5381   -9377.4285    9072.3289   0.10743418 
  236000    1486.6574   -9838.4258   -9377.4206    9120.5757  0.093086635 
  237000    1514.2197   -9846.9814   -9377.4293    9172.5582  0.092919552 
  238000    1483.2921   -9837.3828   -9377.4212    9221.3193   0.09455315 
  239000    1478.9777   -9836.0605   -9377.4368    9273.7245  0.098960936 
  240000    1472.4052    -9834.001   -9377.4154    9324.3475  0.098178098 
  241000    1490.3524   -9839.5762   -9377.4252    9370.8052  0.098910435 
  242000    1510.7141   -9845.9062   -9377.4412    9419.7748  0.096164766 
  243000    1498.1954   -9842.0361   -9377.4531    9470.3138  0.095533546 
  244000    1503.5617   -9843.6758   -9377.4287     9520.546   0.10288228 
  245000     1450.252   -9827.1436   -9377.4275    9570.3533  0.097935374 
  246000    1533.1762   -9852.8496   -9377.4192    9619.8088   0.10054231 
  247000     1514.518   -9847.0791   -9377.4345    9670.1125   0.10564637 
  248000    1478.8411   -9836.0088   -9377.4274     9717.949   0.10655882 
  249000    1488.8702   -9839.1367   -9377.4454    9765.5379   0.10120718 
  250000    1500.2182   -9842.6328   -9377.4225    9814.3938   0.10219327 
Loop time of 31587.1 on 1 procs for 200000 steps with 2400 atoms

Performance: 0.547 ns/day, 43.871 hours/ns, 6.332 timesteps/s
98.1% CPU use with 1 MPI tasks x 1 OpenMP threads

MPI task timing breakdown:
Section |  min time  |  avg time  |  max time  |%varavg| %total
---------------------------------------------------------------
Pair    | 31477      | 31477      | 31477      |   0.0 | 99.65
Neigh   | 86.189     | 86.189     | 86.189     |   0.0 |  0.27
Comm    | 10.698     | 10.698     | 10.698     |   0.0 |  0.03
Output  | 0.0059069  | 0.0059069  | 0.0059069  |   0.0 |  0.00
Modify  | 9.4667     | 9.4667     | 9.4667     |   0.0 |  0.03
Other   |            | 3.717      |            |       |  0.01

Nlocal:        2400.00 ave        2400 max        2400 min
Histogram: 1 0 0 0 0 0 0 0 0 0
Nghost:        4569.00 ave        4569 max        4569 min
Histogram: 1 0 0 0 0 0 0 0 0 0
Neighs:         0.00000 ave           0 max           0 min
Histogram: 1 0 0 0 0 0 0 0 0 0
FullNghs:      196052.0 ave      196052 max      196052 min
Histogram: 1 0 0 0 0 0 0 0 0 0

Total # of neighbors = 196052
Ave neighs/atom = 81.688333
Neighbor list builds = 6787
Dangerous builds = 0
Setting up Verlet run ...
  Unit style    : metal
  Current step  : 250000
  Time step     : 0.001
Per MPI rank memory allocation (min/avg/max) = 4.479 | 4.479 | 4.479 Mbytes
Step Temp E_pair TotEng f_3 v_tdiff f_ave 
  250000    1500.2182   -9842.6328   -9377.4225            0   0.10219327   0.10219327 
  251000    1515.4235   -9847.3643   -9377.4389    48.794361   0.10099434   0.10159381 
  252000    1479.2715   -9836.1426   -9377.4277    98.670479  0.097857887    0.1003485 
  253000    1470.2041   -9833.3184   -9377.4153    146.26386  0.098447682  0.099873296 
  254000    1493.7794   -9840.6406    -9377.427    194.75953   0.10467905   0.10083445 
  255000    1485.3924   -9838.0469    -9377.434     245.6507   0.10473358    0.1014843 
  256000    1516.3638    -9847.665   -9377.4481    295.19451   0.10847132   0.10248245 
  257000    1488.9209   -9839.1416   -9377.4345    343.35984   0.10038768    0.1022206 
  258000    1479.8239   -9836.3154   -9377.4293    390.72809   0.10971199   0.10305298 
  259000    1475.7419   -9835.0566   -9377.4363    439.14076   0.10157815    0.1029055 
  260000    1488.6208   -9839.0557   -9377.4417     484.0551   0.10844759   0.10340932 
  261000    1518.5903   -9848.3467   -9377.4393    533.04836  0.095984881   0.10279062 
  262000    1520.0696   -9848.7969   -9377.4308    584.05626  0.095370207   0.10221982 
  263000    1499.3248   -9842.3701   -9377.4369    632.98109  0.095610125    0.1017477 
  264000    1463.9801   -9831.3916   -9377.4186    682.63308  0.090785878   0.10101691 
  265000    1508.0831   -9845.0928   -9377.4436    732.05583  0.098865589   0.10088245 
  266000    1516.9089   -9847.8105   -9377.4246    781.18138  0.096551045   0.10062766 
  267000    1464.4762   -9831.5586   -9377.4317    831.41441   0.08742983  0.099894451 
  268000    1493.6314    -9840.584   -9377.4162    880.84779  0.099145371  0.099855026 
  269000    1488.1814   -9838.9014   -9377.4236    929.89952   0.10339463   0.10003201 
  270000    1497.1167   -9841.6748   -9377.4263    980.01409  0.097495337  0.099911212 
  271000     1514.105   -9846.9551   -9377.4386    1030.2256   0.10283957   0.10004432 
  272000    1489.2936    -9839.251   -9377.4283    1078.9031   0.10257521   0.10015436 
  273000    1475.0425   -9834.8447   -9377.4413    1126.9628  0.098864817   0.10010063 
  274000    1499.2972   -9842.3613   -9377.4366    1178.8008  0.098407619   0.10003291 
  275000    1501.8943   -9843.1748   -9377.4447     1226.982   0.10591172   0.10025901 
  276000    1507.4144    -9844.875   -9377.4332    1274.3688  0.097495976   0.10015668 
  277000    1491.3483   -9839.8877   -9377.4279    1324.7619  0.099880149    0.1001468 
  278000    1449.3184   -9826.8447   -9377.4182     1371.286   0.10359455   0.10026569 
  279000    1454.8825   -9828.6035   -9377.4516    1422.9646  0.094310312   0.10006718 
  280000    1488.9975   -9839.1709   -9377.4401    1474.1436   0.10139497   0.10011001 
  281000    1501.6851   -9843.1113   -9377.4462    1524.2195   0.10420347   0.10023793 
  282000     1476.375   -9835.2666     -9377.45    1572.8836   0.10270158   0.10031259 
  283000    1473.3454   -9834.3193   -9377.4422    1621.3596   0.10113283   0.10033671 
  284000    1495.6398   -9841.2344   -9377.4438    1670.6592  0.099375307   0.10030924 
  285000     1489.925   -9839.4561   -9377.4376    1719.8692  0.095419602   0.10017342 
  286000    1485.8804   -9838.2061   -9377.4418    1767.6629  0.093525418  0.099993745 
  287000    1496.0577   -9841.3555   -9377.4353    1815.2171  0.097655632  0.099932215 
  288000    1484.8489   -9837.8877   -9377.4433    1865.2948  0.096361142  0.099840649 
  289000    1480.6105    -9836.584   -9377.4539    1917.1453  0.096647645  0.099760824 
  290000    1477.9755   -9835.7529     -9377.44    1966.4495   0.10458446  0.099878474 
  291000    1524.6638   -9850.2412   -9377.4504    2016.2909    0.1035407   0.09996567 
  292000    1540.8737   -9855.2646   -9377.4473    2066.1358  0.098471592  0.099930924 
  293000    1481.5635   -9836.8662   -9377.4406    2113.6186  0.095032103  0.099819587 
  294000    1491.8913   -9840.0918   -9377.4636    2161.9026  0.094074273  0.099691913 
  295000     1471.936    -9833.874   -9377.4339    2210.8112  0.098403413  0.099663902 
  296000    1478.3965   -9835.8867   -9377.4432    2260.2332  0.096416591  0.099594811 
  297000    1507.3389    -9844.873   -9377.4547    2307.6879   0.09362625  0.099470466 
  298000    1499.7778   -9842.5283   -9377.4546    2359.3466  0.095781878  0.099395188 
  299000    1510.9652   -9845.9785   -9377.4356    2407.5399  0.099032305  0.099387931 
  300000    1482.7685   -9837.2314   -9377.4322    2453.0702  0.095527968  0.099312245 
  301000    1464.4292   -9831.5586   -9377.4463    2499.2192   0.10088175  0.099342428 
  302000    1502.2792   -9843.2871   -9377.4377    2548.0375  0.096280311  0.099284652 
  303000    1498.6568    -9842.166   -9377.4399    2597.4488   0.10270117  0.099347921 
  304000    1466.1475   -9832.0781    -9377.433    2646.6118  0.097335345  0.099311329 
  305000    1497.8762   -9841.9326   -9377.4486    2694.9354  0.098510547  0.099297029 
  306000    1527.7841   -9851.2119   -9377.4536    2744.7539  0.092785048  0.099182784 
  307000    1492.9818   -9840.3994   -9377.4331    2794.6069  0.090532696  0.099033644 
  308000     1502.526    -9843.377    -9377.451     2842.467    0.1022885  0.099088811 
  309000    1504.6857   -9844.0234   -9377.4278    2891.2927  0.099196491  0.099090606 
  310000    1455.4661   -9828.7656   -9377.4327    2939.9498   0.10033586   0.09911102 
  311000    1468.2887   -9832.7598   -9377.4507    2990.1768   0.10244577  0.099164806 
  312000     1509.608   -9845.5615   -9377.4395    3038.5802   0.10981141    0.0993338 
  313000    1504.4723   -9843.9717   -9377.4422    3088.7357   0.10497529  0.099421948 
  314000    1492.5609    -9840.292   -9377.4562    3134.9103   0.11395077  0.099645468 
  315000    1473.3364   -9834.3223   -9377.4479    3184.3515   0.10383982  0.099709019 
  316000    1510.3472   -9845.8037   -9377.4525    3234.3804  0.099224295  0.099701785 
  317000    1502.5509   -9843.3711   -9377.4374    3282.0812    0.1017136   0.09973137 
  318000    1510.8618   -9845.9453   -9377.4345    3331.4644  0.094933786   0.09966184 
  319000    1504.2715   -9843.9072     -9377.44    3380.8597    0.1055023  0.099745275 
  320000    1499.2548   -9842.3506    -9377.439    3427.5641   0.11049706  0.099896709 
  321000     1472.595   -9834.0859   -9377.4415    3477.3735   0.11062117   0.10004566 
  322000    1481.6991   -9836.9189   -9377.4513    3523.8477    0.1014833   0.10006535 
  323000    1492.0992   -9840.1553   -9377.4626    3573.1289   0.10249118   0.10009813 
  324000     1507.897     -9845.04   -9377.4486    3619.7586   0.10764746   0.10019879 
  325000    1481.0215   -9836.7041   -9377.4466    3670.4033  0.094523177   0.10012411 
  326000    1512.6783   -9846.5293   -9377.4552    3720.5647  0.093851921   0.10004266 
  327000    1484.9523   -9837.9395    -9377.463     3772.167  0.094040154  0.099965701 
  328000    1473.6054   -9834.4092   -9377.4514    3819.3249   0.10587568   0.10004051 
  329000    1504.1111   -9843.8779   -9377.4605    3866.7544   0.10776377   0.10013705 
  330000    1459.3259   -9830.0068    -9377.477    3913.4538   0.11188546   0.10028209 
  331000    1501.7787   -9843.1318   -9377.4376     3960.523    0.1108155   0.10041055 
  332000    1514.6904   -9847.1768   -9377.4787    4007.5732   0.10395087    0.1004532 
  333000    1467.0269   -9832.3662   -9377.4484    4055.4527   0.10327512    0.1004868 
  334000    1453.1366   -9828.0557   -9377.4451    4101.6963   0.10359458   0.10052336 
  335000    1487.7015   -9838.7832   -9377.4543    4148.9801   0.10656735   0.10059364 
  336000    1502.0849    -9843.249   -9377.4599    4197.8164   0.10286222   0.10061972 
  337000    1466.9743   -9832.3535    -9377.452    4245.8911   0.11124045   0.10074041 
  338000    1510.7281   -9845.9336   -9377.4642    4297.2116   0.10593968   0.10079882 
  339000    1484.3147   -9837.7354   -9377.4566    4346.7065   0.09795873   0.10076727 
  340000    1491.8978   -9840.0938   -9377.4636    4397.5045  0.092276877   0.10067397 
  341000    1502.4457    -9843.376   -9377.4749    4448.3289   0.10231649   0.10069182 
  342000    1514.2144   -9847.0225    -9377.472     4496.959   0.10816405   0.10077217 
  343000    1497.6825   -9841.9014   -9377.4774    4546.5217   0.10458065   0.10081268 
  344000    1487.9406   -9838.8672   -9377.4641     4593.849   0.10515655   0.10085841 
  345000    1493.3638   -9840.5615   -9377.4767    4642.4977  0.097209884    0.1008204 
  346000    1484.3532   -9837.7549   -9377.4642     4691.933   0.10247068   0.10083742 
  347000    1482.3357    -9837.127   -9377.4619    4741.9403   0.10216741   0.10085099 
  348000    1508.9142   -9845.3857   -9377.4789    4793.1361  0.093261451   0.10077432 
  349000    1486.7255   -9838.5049   -9377.4786    4844.1861  0.089207904   0.10065866 
  350000     1488.457   -9839.0381   -9377.4749    4892.7959  0.096546469   0.10061795 
  351000    1476.8876   -9835.4727   -9377.4971    4940.6442  0.098438583   0.10059658 
  352000     1467.561   -9832.5684   -9377.4849    4987.2368   0.10703308   0.10065907 
  353000    1498.9929   -9842.3262   -9377.4958    5037.6082   0.09731436   0.10062691 
  354000    1481.6291   -9836.9229   -9377.4769    5084.3176    0.1036832   0.10065602 
  355000    1508.0929   -9845.1611   -9377.5089     5132.804  0.088576299   0.10054206 
  356000    1501.1447    -9843.002   -9377.5044     5183.142  0.099153513   0.10052908 
  357000    1492.6022   -9840.3369   -9377.4883    5234.0014  0.092969841   0.10045909 
  358000    1508.8832   -9845.3896   -9377.4924    5285.2264  0.088168552   0.10034633 
  359000    1484.8324   -9837.9307   -9377.4914    5332.2973  0.098988441   0.10033399 
  360000    1520.2044   -9848.9004   -9377.4925    5382.7003   0.10004736    0.1003314 
  361000     1461.791   -9830.7803   -9377.4861    5431.4737   0.10147401    0.1003416 
  362000    1500.8668    -9842.915   -9377.5036    5480.7197    0.1004584   0.10034264 
  363000    1472.7334   -9834.1836   -9377.4962    5530.5163  0.094752795    0.1002936 
  364000    1495.6676   -9841.2861    -9377.487    5579.0578  0.093477951   0.10023434 
  365000    1469.9197   -9833.3086   -9377.4937    5630.0732  0.097600906   0.10021164 
  366000    1500.6424   -9842.8398    -9377.498    5677.0663   0.10406052   0.10024453 
  367000    1462.7743   -9831.0859   -9377.4868    5723.8888  0.093669029   0.10018881 
  368000    1504.2574    -9843.959   -9377.4962    5772.6334   0.10011175   0.10018816 
  369000     1475.282   -9834.9756   -9377.4979    5821.7468   0.10126467   0.10019713 
  370000    1477.7029   -9835.7168   -9377.4884    5869.9523   0.10554166    0.1002413 
  371000    1491.8141   -9840.1016   -9377.4973    5920.3793   0.10834014   0.10030768 
  372000    1497.9153    -9841.998   -9377.5019    5968.5282   0.10797072   0.10036999 
  373000    1474.6896   -9834.7988   -9377.5048    6016.0376   0.10966674   0.10044496 
  374000    1494.5709   -9840.9521   -9377.4931    6063.5039   0.10352313   0.10046959 
  375000    1491.1786   -9839.9141   -9377.5069    6111.7361   0.10848393   0.10053319 
  376000    1503.8136   -9843.8262    -9377.501    6161.0171  0.093497351   0.10047779 
  377000    1477.2606   -9835.5781   -9377.4869    6211.3511  0.097176672     0.100452 
  378000    1491.8403   -9840.1074   -9377.4951    6259.9288   0.11034736   0.10052871 
  379000    1516.8129   -9847.8613   -9377.5051    6311.1287   0.10448583   0.10055915 
  380000    1506.3416   -9844.6055   -9377.4963    6361.6375   0.10359979   0.10058236 
  381000     1513.532   -9846.8555   -9377.5166     6412.188   0.10877088   0.10064439 
  382000    1502.2646   -9843.3506   -9377.5057    6461.0659   0.10262094   0.10065925 
  383000    1479.8926   -9836.3906   -9377.4832    6509.7366   0.10152759   0.10066573 
  384000    1517.7544   -9848.1592    -9377.511    6556.8326  0.099637305   0.10065812 
  385000    1501.9297    -9843.248    -9377.507    6605.3901   0.10674739   0.10070289 
  386000    1493.1812   -9840.5205   -9377.4923    6655.4176  0.099768508   0.10069607 
  387000    1496.5903   -9841.6025   -9377.5173    6704.4587   0.11185083    0.1007769 
  388000    1492.6163   -9840.3604   -9377.5074    6753.9232  0.094366975   0.10073079 
  389000     1494.746   -9841.0146   -9377.5013    6801.8214  0.095784961   0.10069546 
  390000    1501.2003   -9843.0225   -9377.5076    6853.3553    0.1002152   0.10069205 
  391000     1536.347   -9853.9102   -9377.4965    6902.2266   0.11088721   0.10076385 
  392000    1505.4314   -9844.3271   -9377.5003    6949.9387   0.10067417   0.10076322 
  393000    1496.4906   -9841.5566   -9377.5023    6997.1766   0.10085157   0.10076384 
  394000    1482.3753   -9837.1729   -9377.4956    7043.9415   0.10296117   0.10077899 
  395000    1499.9186   -9842.6182   -9377.5008    7093.9039   0.10006075   0.10077407 
  396000    1516.3839   -9847.7236   -9377.5004    7141.7968   0.10411579    0.1007968 
  397000    1502.9354   -9843.5635   -9377.5106    7189.4225   0.10871501   0.10085031 
  398000    1511.4925   -9846.1992   -9377.4928    7238.7974  0.098829353   0.10083674 
  399000    1469.8687    -9833.292   -9377.4929    7288.2918  0.099957456   0.10083088 
  400000    1480.6995   -9836.6543   -9377.4966    7335.9028   0.11022315   0.10089308 
  401000    1505.6397   -9844.3994   -9377.5079    7385.5691    0.1052975   0.10092206 
  402000    1480.6167   -9836.6328   -9377.5008     7434.296   0.10602042   0.10095538 
  403000    1495.9085   -9841.3877   -9377.5138    7484.1947   0.10277294   0.10096718 
  404000    1495.5246   -9841.2676   -9377.5127    7532.7961   0.10378016   0.10098533 
  405000    1481.3472   -9836.8613   -9377.5028    7580.3035   0.10763087   0.10102793 
  406000    1488.2451   -9839.0127   -9377.5152     7627.473   0.10306019   0.10104088 
  407000    1462.1962   -9830.9395   -9377.5196    7678.0293   0.10470801   0.10106408 
  408000    1471.0999   -9833.6738    -9377.493    7726.4661   0.10553858   0.10109223 
  409000    1501.3974    -9843.082   -9377.5061    7774.5578   0.10559608   0.10112038 
  410000    1467.9805   -9832.7188   -9377.5052    7823.1493  0.095642846   0.10108635 
  411000    1497.5417   -9841.8945   -9377.5142     7870.583   0.10519562   0.10111172 
  412000    1484.9469   -9837.9834   -9377.5087    7919.4373  0.096380302   0.10108269 
  413000    1469.3002   -9833.1309   -9377.5081    7968.4465  0.096447324   0.10105443 
  414000    1495.5583   -9841.2891   -9377.5238    8018.4696     0.102438   0.10106281 
  415000    1507.9482   -9845.1279   -9377.5206     8066.347   0.11202366   0.10112884 
  416000    1508.7288   -9845.3682   -9377.5188    8116.6498   0.10268242   0.10113815 
  417000    1481.3404   -9836.8545   -9377.4981    8163.7957   0.10045937    0.1011341 
  418000    1497.5539   -9841.8984   -9377.5143    8212.6135   0.10083433   0.10113233 
  419000    1503.8678   -9843.8643   -9377.5223    8261.6489   0.10974669     0.101183 
  420000    1477.7034   -9835.7441   -9377.5156    8313.2747  0.097946814   0.10116408 
  421000    1491.9938   -9840.1768   -9377.5168    8364.9453   0.10381358   0.10117948 
  422000    1502.7238   -9843.5137   -9377.5264    8415.8486   0.10084423   0.10117754 
  423000    1489.9469   -9839.5371   -9377.5119    8462.4979   0.10536596   0.10120162 
  424000    1500.1665   -9842.7109   -9377.5167    8510.0991   0.10408291   0.10121808 
  425000    1486.4334    -9838.459   -9377.5233    8557.8939  0.098434059   0.10120226 
  426000    1481.7242   -9836.9912   -9377.5158    8608.0551   0.10054193   0.10119853 
  427000    1488.7795   -9839.1602    -9377.497     8655.725    0.1075226   0.10123406 
  428000    1503.0276   -9843.5957   -9377.5142    8706.3678   0.10297391   0.10124378 
  429000    1473.2274   -9834.3633   -9377.5227    8755.4312   0.10939665   0.10128907 
  430000    1505.0915   -9844.2432   -9377.5217    8804.7714   0.10450067   0.10130682 
  431000    1519.2651   -9848.6523   -9377.5357    8855.8292  0.099912756   0.10129916 
  432000    1523.3542   -9849.9297    -9377.545    8906.6521  0.091075378   0.10124329 
  433000     1502.608   -9843.4746   -9377.5233    8955.8622   0.10610337    0.1012697 
  434000    1485.4369   -9838.1514   -9377.5247    9004.5884    0.1002893    0.1012644 
  435000    1495.2617   -9841.1885   -9377.5152    9052.3196   0.10622291   0.10129106 
  436000    1511.2029   -9846.1475   -9377.5309    9100.6188   0.10425465   0.10130691 
  437000    1519.5113   -9848.7207   -9377.5277    9149.5388   0.10038734   0.10130202 
  438000    1459.8597   -9830.2256   -9377.5303    9198.6023   0.10944701   0.10134511 
  439000    1488.0586   -9838.9717    -9377.532     9246.526   0.10006975    0.1013384 
  440000    1491.3735   -9839.9941   -9377.5265    9295.6813   0.10242681    0.1013441 
  441000    1506.6624   -9844.7383   -9377.5297     9344.338  0.096704882   0.10131994 
  442000    1451.5006   -9827.6289   -9377.5257    9394.2005    0.1002621   0.10131446 
  443000    1482.0301   -9837.1006   -9377.5303    9442.9149   0.10022412   0.10130884 
  444000    1430.6811   -9821.1758   -9377.5286    9493.6323   0.10710402   0.10133856 
  445000    1505.5706   -9844.4053   -9377.5352    9544.0621   0.10103905   0.10133703 
  446000    1476.3184   -9835.3262   -9377.5271     9592.382  0.098111532   0.10132065 
  447000    1465.0986   -9831.8477   -9377.5278    9640.7353  0.098172273   0.10130475 
  448000    1485.2896   -9838.1201   -9377.5391    9689.9967   0.09964934   0.10129643 
  449000    1471.6832   -9833.8984   -9377.5367    9737.7186   0.10876446   0.10133377 
  450000    1507.2844   -9844.9561   -9377.5546    9784.1055   0.10211091   0.10133764 
Loop time of 31775.2 on 1 procs for 200000 steps with 2400 atoms

Performance: 0.544 ns/day, 44.132 hours/ns, 6.294 timesteps/s
98.3% CPU use with 1 MPI tasks x 1 OpenMP threads

MPI task timing breakdown:
Section |  min time  |  avg time  |  max time  |%varavg| %total
---------------------------------------------------------------
Pair    | 31664      | 31664      | 31664      |   0.0 | 99.65
Neigh   | 87.499     | 87.499     | 87.499     |   0.0 |  0.28
Comm    | 10.655     | 10.655     | 10.655     |   0.0 |  0.03
Output  | 0.0053027  | 0.0053027  | 0.0053027  |   0.0 |  0.00
Modify  | 9.568      | 9.568      | 9.568      |   0.0 |  0.03
Other   |            | 3.696      |            |       |  0.01

Nlocal:        2400.00 ave        2400 max        2400 min
Histogram: 1 0 0 0 0 0 0 0 0 0
Nghost:        4457.00 ave        4457 max        4457 min
Histogram: 1 0 0 0 0 0 0 0 0 0
Neighs:         0.00000 ave           0 max           0 min
Histogram: 1 0 0 0 0 0 0 0 0 0
FullNghs:      195864.0 ave      195864 max      195864 min
Histogram: 1 0 0 0 0 0 0 0 0 0

Total # of neighbors = 195864
Ave neighs/atom = 81.610000
Neighbor list builds = 6780
Dangerous builds = 0
Running average thermal conductivity: 6.68
System init for write_data ...
Total wall time: 19:48:45
