LAMMPS data file via write_data, version 29 Sep 2021, timestep = 450000

2400 atoms
3 atom types

0 24.097210010501502 xlo xhi
0 36.145815015752255 ylo yhi
0 48.194420021003005 zlo zhi

Masses

1 18.998403163
2 6.938
3 22.989769

Atoms # atomic

1294 3 2.980234061636576 3.9590836827987634 47.55197618975796 0 0 0
645 1 2.0423385363064406 1.4499371365498195 48.176568332811655 1 0 -1
611 1 2.606458737463362 2.2188740804784883 4.204860902595183 3 1 0
1772 3 6.2835275626338865 34.81734892715003 2.4151783230551094 2 -1 0
346 1 7.05270760628948 0.7598042487896519 3.9612722898896173 1 2 -1
914 1 4.357386265212295 0.8080733806052353 1.9468388689134573 2 0 0
2351 3 10.190060362233025 3.7121139435220125 0.7147536000503184 1 0 1
547 1 9.175945156989801 1.0979457665605046 46.476616259134566 1 1 0
1682 3 8.89425448244605 0.7066680011258929 0.40766672299739076 -2 1 0
416 1 9.621744217759378 4.324712413387047 2.9908438252719907 0 -1 0
1278 3 9.57010386571352 0.4516838640892096 4.969099279581644 0 1 0
1811 1 10.617847216767412 1.9964010303526143 1.5684078333971598 -2 0 0
1091 3 11.42033663395947 35.594823555513074 3.0405319274545417 0 1 0
257 3 13.901201776163184 3.923656964138028 47.802144835509914 1 0 -1
1929 1 16.4432705647267 3.852092755244744 1.711089175935476 -1 0 0
2254 3 15.783823405108373 2.9526470566298486 3.8415528298190007 1 1 0
1924 1 14.280687305432352 1.7305898479622055 2.901438726293523 0 0 1
860 3 17.85391314339526 35.974468737990584 3.419563552928609 0 0 0
1661 3 18.437225907547184 3.7817229498137586 3.616450513248454 -2 1 0
2016 1 19.78660748206687 1.705674433261401 47.53337635869804 1 2 0
1011 1 18.589829728110363 1.7787495816639327 3.1292068911999955 1 1 -1
493 3 20.97329916501477 1.3801454742283892 1.3726960738889185 0 0 0
981 3 0.7525657178724404 1.7726861398869636 2.744685215314424 1 0 1
1535 1 22.180346649037432 1.3522172752840211 3.1564990056831927 -1 0 1
2303 1 3.217658876669152 5.607628733141062 1.2103770474762057 1 2 1
852 3 24.025274176964615 6.002814334086043 46.18710402522125 0 0 -1
1008 1 5.604491212111829 4.041013486530398 4.322358592873041 0 1 0
2389 3 4.645203849997907 6.029655033762309 3.1326669386418216 0 0 0
716 1 6.579206880572557 6.255991374286564 1.6780355246454357 1 0 1
270 3 7.257502191143288 2.7175279778292194 2.935831346065873 -1 1 1
382 3 4.985996141890793 6.5495060851197495 46.34444588897055 -2 0 -1
727 1 10.088634682920363 6.173739613985356 0.06710704440421683 1 0 -1
1931 1 8.541241432909413 6.684022984102047 5.851844992700486 0 0 1
2287 3 8.681565511267614 6.17945771289055 2.0582267127960807 1 0 2
2145 1 13.244125960538907 5.486079986637324 2.0698001691640027 0 1 1
1071 3 12.77106237305988 6.991022622879235 47.78675140909423 0 2 0
1632 1 15.930929256221106 5.14108705269305 4.413122048688419 -1 1 1
2092 3 15.693658861431176 6.142978111822242 2.341593423254941 2 -1 0
1164 3 13.329103167645624 5.563613626478525 5.719589091053591 0 1 1
1707 1 21.26832545650764 4.32205969165372 1.8053480808936153 0 1 1
2126 1 17.107910000244043 6.2399109739559515 0.3214465435813018 -1 0 2
553 3 17.664189563155787 6.663138316973144 4.897010983989099 1 1 0
1252 3 19.801172801280263 6.352645697070497 1.5037507656568543 1 1 0
1495 3 22.863138634400855 3.6567366717677823 0.4419818232602406 -2 -1 1
933 1 23.938427249204853 3.785495324605115 3.117315875780907 -1 0 0
327 1 0.9956980642537006 4.119220200348321 48.16054799030954 3 1 -2
1652 3 5.339167043739865 11.295563188065664 2.9560004597995206 1 1 1
351 3 2.135052516374918 7.641586610461071 0.5628722688890138 0 0 0
1806 1 1.5552123475948254 9.665604441850826 0.7404364431689439 -2 1 2
929 1 1.3275676208453362 11.519305343047987 3.611073712638386 1 0 1
708 1 6.5137026490534975 9.56449852063479 3.0081302374652146 2 0 0
1414 1 4.714007764789509 8.46259613940248 47.09244752420652 2 1 -1
2185 3 8.341982999339029 10.186916810049748 2.614074549393591 -3 0 1
901 1 7.87391690057404 8.908757710570304 0.587725378256651 2 1 0
1422 1 9.949800962894486 7.961431319925756 2.8945625444900194 1 0 0
1680 3 12.387362879406812 7.621132448770937 3.2542760608343877 -2 -1 1
62 3 10.171662477028773 8.201212155557414 0.6391317598432037 1 1 0
720 1 15.0293187907876 7.940340495087607 3.0322041823514487 3 2 0
1846 1 12.21219683601666 8.756955274790291 0.728556005252992 -1 0 1
167 3 14.477027713416291 9.354139785281129 1.6309604355998981 1 0 1
2035 1 16.53401529700617 10.658439990201016 1.7597769773729703 1 0 2
379 3 18.06571801655773 10.394329734501136 3.7920337741286874 1 0 0
972 3 16.2626388862016 7.244918994098469 46.91032414353274 0 2 0
2134 1 19.126400857233367 9.140435069513854 1.8626931108247065 2 0 3
1716 1 21.72304612667274 7.377727686606785 1.719693194511695 1 1 1
1176 3 20.598746359567635 8.128423191733127 3.684899706669184 0 0 0
296 3 23.83825898729894 8.843365258961605 1.335099139589856 2 0 0
1128 1 23.040537162763343 11.14144496253475 1.2318667275338504 -1 1 1
1901 1 3.9404297446937413 11.927539625605396 1.4477486118207974 0 -1 2
1401 1 1.6563312767400244 13.927923693907845 2.1254939133041004 1 0 1
563 3 2.89470198587577 14.227673329229333 0.10352823255544961 2 0 0
1447 1 1.6900446809224294 12.370849267072824 47.555806890397434 0 0 0
2208 1 5.427572907599065 14.46045607249985 2.0910532216063937 -2 2 0
755 3 7.576923886115673 13.740226752373342 2.0853583342672786 0 0 1
512 1 10.052168426706885 12.080107971201896 2.908644147051399 0 -1 1
208 1 7.757193193458177 12.09733387081742 0.7295843729181772 -2 1 -1
762 3 9.791910919425451 12.416729970525255 0.6686815742168509 0 0 0
1831 1 8.438436146854125 14.672723215711073 0.0832275143982717 -1 0 1
1171 3 12.222826626143492 12.141341682439469 2.3704573516499776 1 3 1
1859 3 15.668718697455773 12.525840462216554 2.302498751055451 -1 -1 1
464 3 16.677272716468845 15.46439406353586 1.3695268219874797 1 0 0
1674 3 18.060044821796172 12.406422679237894 1.5638578978820643 -1 1 0
340 1 20.249024255057225 12.176097005268256 0.8559123539502884 -4 0 0
2020 1 16.98545886886671 15.0454133712876 3.4203421872775257 -1 0 2
1580 3 20.74148437981365 10.428779637448077 1.800948012908393 -2 0 0
835 1 21.980659216585465 13.969234123554514 3.279911294859476 0 1 1
678 3 1.7630933860112281 11.780661794611747 1.1214168381000351 0 -2 0
2361 3 23.944496303723955 15.044548654512669 2.06412970552883 -1 1 1
2111 1 1.651528593441903 15.718267304683485 47.65995483376079 3 0 0
1028 1 4.698659984093766 17.370194209284815 0.340567420378008 0 0 0
431 1 8.43362102303796 15.216594228796398 3.4943748512346815 -2 1 -1
1700 3 6.0090852552302625 18.444299684487483 1.484356949636669 -1 0 -1
2329 1 11.263199712184802 14.108865884105352 1.4778079401505444 1 0 0
1387 3 10.358478818383714 16.620764780634186 2.7469370591414064 -1 0 0
2047 1 10.501971197162925 18.785052396441973 3.581075929551804 -1 0 1
286 3 12.891710008538267 15.420037098728852 2.3731168480919567 0 0 1
1726 1 11.477057988265473 15.979674988435011 4.267749736161704 -1 0 1
1633 1 13.952478045706563 17.38542482889688 3.25250415198079 1 1 0
843 1 11.45770862457661 16.966716678146476 0.9326567188608436 -1 1 0
772 3 15.13362459013034 17.723949776792196 1.4076736247135746 1 -2 0
1500 3 18.535309829385266 16.177456872666006 3.9673950791074324 -2 1 1
213 1 19.510766829819833 16.002238584884314 1.9595105899855367 -3 0 1
1877 3 18.313751849633555 18.345753327520573 0.9368744888833295 -1 -1 0
2357 3 21.15531890755808 14.777415824789973 1.1786629778577422 -1 1 1
1807 1 22.505933775104634 16.590164141646767 1.5276414157745501 0 1 1
473 3 20.133716249044 17.34319225514288 5.889542591337875 0 -1 0
884 3 0.17870121283194787 18.382615452336626 2.4717754871601447 0 -1 -1
105 1 0.5187944005248603 20.564641971584066 3.231892337683158 1 -1 0
751 3 0.5055424541622272 21.710633133047672 47.689238987730526 1 0 -1
1044 1 23.353074272689028 19.63936240686107 0.6201335090466636 0 0 0
2097 3 8.005749108153797 20.2388244560347 47.99278061648723 -3 -1 -1
486 3 1.9881293175602741 20.019058364894548 1.3359323691863865 -2 -1 0
1927 1 7.057958325570533 20.065630889759856 2.427029649181507 3 -1 2
939 1 10.187836199796616 20.37261565151743 0.7254666119726375 -1 1 2
2367 3 9.67512883378097 21.552920875904675 2.4977683543747577 0 0 1
670 3 12.052805504236087 18.9842413315464 2.0624415846561264 1 -1 0
1818 1 13.033137763881474 21.932688191115915 47.551758267144706 1 -1 0
870 3 15.417336702343972 19.612555087168683 3.852273842157555 0 0 1
874 3 21.012488267121785 17.892243590644508 2.791190826271329 0 -1 0
1147 1 16.9189797062426 18.408664463129078 2.918229193763558 1 1 0
164 3 18.535429703494028 19.590606051382505 4.50049704508236 1 -1 1
2046 1 19.80273167119834 19.3516916662854 1.9486126680521496 -1 1 0
1851 3 22.309090376414794 20.96509606307214 2.0212694376822524 0 0 0
1102 1 21.570197714639942 17.875753934705575 4.826026116741883 0 -1 0
640 1 23.37246178566746 22.982587795699796 0.629805259731586 -3 -1 0
2086 3 3.1992021727693047 23.555815201175946 3.1744792935624067 -1 0 1
2334 1 2.5582047045221765 22.661782277447955 0.5797326667932698 1 1 1
734 1 2.4389560891850595 25.649128896075947 1.2787056032946613 1 -1 1
1980 3 6.352780324890088 21.832478720002236 1.605894595776355 3 -2 1
1733 1 5.544272332085148 23.933125892203613 1.2029229095939658 1 1 1
1450 1 8.207595906950312 22.890001961222396 2.9901487196965366 -1 0 -1
1229 1 11.544300817278199 22.907385687091622 2.0562805571152514 -1 0 1
97 3 9.225697811738236 24.484573611758865 1.3391981797815118 -1 -1 0
2311 1 16.035311360881316 21.861194568398727 1.941030761197765 -1 1 1
1565 3 13.847738187742541 21.52728637033879 1.3934381212863824 -1 -1 1
1824 1 15.291101234640378 23.772722729086528 47.623101995860345 0 0 0
714 1 13.553996331569893 24.092678701136432 3.83409617965295 0 -1 1
197 3 16.197068901124037 21.821731983510595 48.11656682127809 -1 -1 0
183 3 16.575385843057568 24.125379245268114 1.5754449055854818 0 -1 1
1201 1 17.738014020290333 25.421449938871376 2.9549015150572644 0 -2 0
1524 1 18.10491352543101 23.356861193376453 0.42203930380664945 -1 0 1
2253 3 19.105164316976637 22.688571140798995 2.619866917695541 1 -1 0
7 1 20.811563818583075 24.88780820481143 3.924492426072635 1 -1 1
639 1 20.47401657330471 22.1749436730479 1.0717169781842313 0 -1 0
754 3 22.07134550378888 24.09243070369059 2.1865367822340693 -2 0 1
98 3 1.7364956581084539 26.535315267411775 3.277364971410232 1 -1 0
1130 1 23.85530244151373 25.542514252828298 2.8565014510375772 1 -1 2
1339 1 3.5278606077983037 28.280887995291245 2.7032469160230668 -1 -1 1
562 3 4.93456373441332 26.012239572163768 0.6324973116295644 2 1 0
139 1 6.399310827874011 26.922863212273686 1.4754688807936944 2 0 0
76 3 10.602794332393392 26.944911852718207 2.6893937513009014 0 -2 1
625 1 8.842235369738276 25.675484082558125 3.311044784394997 -1 -2 1
1161 3 8.31999966321705 27.887224505526103 1.22286641893118 -1 2 1
2343 1 10.366190883018358 26.174008644136777 0.6541482975516492 0 -3 1
2324 1 11.480793038331711 28.51541073080883 1.4481386482786025 0 0 1
654 3 14.30689711318942 27.72994431874549 2.9309288648144722 0 0 0
1915 1 13.969642573659034 26.18147924488843 1.559304349954909 -1 0 0
1496 3 17.075501288064515 27.59109754007266 3.4278361121879692 -1 0 0
1356 3 19.171189652893858 26.483206413667233 1.425705967638772 -1 0 0
1420 1 23.209135557656673 26.20310273053128 6.108205619776408 -2 -1 1
21 1 21.382905320788407 26.866896942184955 1.8060823016188252 -1 -1 1
558 3 22.26096975683544 26.502361157514482 3.909362236907493 -2 0 0
489 3 23.244191555690456 27.987977078450665 0.7839833012785304 -1 0 0
151 3 0.26249969326324923 31.05615340562311 2.8719236278617797 1 -1 1
1502 1 22.546721397539848 30.406300861970756 2.2828777291954743 0 0 1
352 3 3.011517997471842 29.95668897231154 1.118336747520678 -2 -1 1
533 1 7.628799046363167 29.32453357731538 47.890255323237035 1 2 0
1301 1 6.1895522462640375 31.259892004553098 1.9942802382175444 -1 -2 1
799 3 5.939221828210888 29.15921272546366 1.573818244275764 3 0 -1
287 3 7.507860878717445 31.4772271215481 0.7159488641349879 0 0 -1
239 1 9.863119377142 32.15269351581883 0.5616654793622539 2 -1 0
2286 3 10.559065399391452 30.076471087815538 3.488289292774526 -2 1 1
1962 3 11.802210512195213 33.317791561973735 0.9216763790549217 3 -2 0
748 1 8.890079622034873 29.55752773362423 2.5306774533044476 0 0 0
1618 1 9.515593247856064 31.609744787730804 4.519661059291666 -3 1 0
453 3 13.212079024450922 30.18026686458203 0.7475219461280941 0 -1 0
776 3 14.37715118462376 33.135792662760224 3.0682898414271675 3 0 0
1523 1 13.832946502296515 32.28124659304779 0.4282979854633508 0 0 1
2141 1 15.147233829917576 29.46442217021384 2.5461970259804882 0 0 1
2104 1 18.365858840122712 28.36581277978527 1.9624398531795548 -1 -1 1
1635 1 17.001078031302114 30.105821189518878 5.313293541134373 -2 0 1
1380 3 18.1760588342951 30.658650062559232 2.8665213923858284 0 -2 0
90 3 19.675243924695877 29.68250525522061 0.28956083072283845 0 0 1
1911 1 21.35840925617776 28.399786069602424 4.659365142755433 0 -1 0
861 3 20.857810539248124 28.849871272192114 2.725578859329137 -1 -2 1
325 1 22.11236178550657 33.26805586298243 3.8870838529828133 0 0 0
801 1 19.191989051321446 31.802052475510244 1.4021994511096443 0 -1 1
1702 1 2.655233836810305 31.64201036735854 47.98170202559107 2 1 -2
1007 1 0.9692468838586441 35.78382639541246 2.5819258395356193 2 1 0
1271 3 2.712803059067047 35.87673220502484 1.0128626639367158 1 -1 0
484 3 23.549210801140596 35.440819787591245 1.0222541374883438 -2 -2 0
1734 1 3.9278440875269434 34.7383947440555 47.55878006691212 1 0 -1
1464 3 4.11414000301013 32.8096393590748 0.4261790985606929 -2 -1 0
1234 1 4.126035519022835 34.249268899991186 2.19530099503183 -2 -2 1
2044 1 10.413714711812569 34.15884960975928 4.594596202238126 0 -2 0
2088 3 9.763709121992692 33.08963892164297 3.0319602906487737 0 -1 1
1019 1 13.338802068738866 35.03606354411574 2.1707637495480228 -1 0 1
746 1 16.872609924647357 35.60926237595737 1.4850697131014001 2 -2 0
1477 3 14.377700653630837 0.4352093130214318 4.38636120432151 0 0 1
175 3 14.238864320856203 0.5447356004649712 0.5012866246540344 0 0 0
462 3 16.35140405724527 31.996226523200768 5.520969269197907 0 0 0
1039 1 17.664691508727945 33.6559482197312 3.897898575293567 1 0 1
699 3 17.6618722041444 33.88707020557446 1.7226578112570947 0 -1 1
174 3 24.081738014127758 34.781152231037694 4.062830754680897 0 -2 0
104 1 19.740433324495083 35.057226678065774 2.609551484940319 0 0 0
1344 1 22.340280959342067 33.568327282549355 0.5280342959124267 -2 0 0
1280 3 20.96507321394908 33.009144856794336 1.9067112353575746 0 0 0
1100 3 1.7891900393088112 0.5011947743199101 5.560089563151278 0 0 1
1532 1 3.524589759909287 4.175884178712012 7.986263260302813 1 0 1
2114 1 4.84158690977754 36.01940953529923 5.401385497655925 -1 -2 0
2269 3 4.681612473619356 1.5625698015929985 3.7791076646828143 3 1 0
808 1 9.020598007323166 3.2520232208388653 5.189834200892082 -2 -1 0
869 3 6.972400426228229 1.9206356723365678 6.037354261628715 2 2 0
1550 1 11.836529180039335 3.8998181601867197 6.7002174259600435 0 0 0
2195 3 9.166779033894654 0.3720687415698911 8.79006660912989 3 0 0
66 3 11.998566314814193 2.8107053038003422 3.1926875937585804 -1 1 -1
646 1 11.692019857071918 1.0674026356746027 4.452496099462745 2 1 -1
872 3 12.766764582743127 1.3587105294864852 6.238527324539781 0 -1 0
2067 3 16.222391784042006 1.6472959431370895 6.854656299442977 -2 0 0
1239 1 17.570747676883794 3.351227827509054 6.084014588024264 -2 0 1
1379 3 19.282884494696145 2.075470632616 6.336454509279961 1 0 1
1218 1 17.43378477030641 2.823888060490005 8.640890203112068 -1 -1 1
2331 1 18.785905002576506 0.13566547501036333 5.596654747908745 0 1 1
187 3 0.03470374405600735 4.655676371845138 5.603548664217576 1 -1 -1
621 1 20.805560871441976 2.9646344819822352 5.5640983257360395 -2 1 0
45 1 0.2296492159291779 1.8715747241329022 6.988741942638061 -1 -1 1
360 3 21.765911112364222 3.33950403587278 3.8435392453868165 1 -1 0
1564 3 3.5892590133197046 3.7965105271488615 5.66581199517723 -2 1 0
1840 1 5.103640701238906 7.124331816950191 5.169458638133437 1 0 2
2392 3 1.9027738270549621 6.85984060199848 7.133242659432305 2 0 0
2000 3 7.680138588266573 5.109332692892221 5.519627366041864 2 0 1
1198 3 10.122373981456818 5.024672953145435 5.090122485685569 1 0 0
1730 1 14.506945809512427 2.720607583510264 5.796028133238794 0 0 0
1740 1 11.599699325303666 6.5045733670351815 5.499590858457007 0 1 1
1490 3 15.803384920925822 4.389173776860931 6.49725325301852 -1 -1 1
446 1 17.02731514739372 6.270428010661958 6.811511838934783 1 -1 -1
1104 1 1.9591137758045152 5.634739151497697 5.328214183870525 1 1 1
2291 3 22.870429118892172 5.915772988032439 2.887666256981593 -1 1 1
1518 1 3.773582894923884 8.325249440060746 2.325029998806708 3 0 0
2063 3 1.6032620340341543 4.745641320790734 2.294924180474539 1 0 1
1063 3 2.8288356373420025 7.64275865337271 4.875932160341248 1 1 1
2209 1 1.1065828771077706 8.76931023793886 5.163407117803318 -1 1 0
1907 1 4.027825676638811 11.87378936315827 4.488779476939299 0 0 1
963 3 5.749342344487941 10.862072137021247 5.728263026106739 0 2 0
469 3 7.193993316852261 8.39207052209776 4.594338233694368 -1 1 0
1441 1 6.929351576875919 9.607371826359149 6.598951944548882 -1 3 0
29 1 8.910565739903106 10.024712279931355 4.647661009270396 2 0 0
1885 3 10.047559064478389 8.230095074011764 5.226485819466294 1 1 -1
26 1 11.078746619465766 9.806116424437633 7.061521640305027 -1 0 0
910 1 13.094020269299333 10.032441801537662 4.112286180830166 -2 1 0
1556 3 15.38547508289234 9.589407053527095 4.640947327991237 0 1 1
2002 1 17.519078013285316 8.791595304828526 5.136699230900882 0 1 0
58 3 15.277309683880063 13.351504078402789 5.809048724702233 1 0 -1
12 1 19.902541138978748 7.576224884118647 6.7482342496236 0 -1 0
2290 3 20.68943133246038 5.525461365640077 6.3662963444557485 1 1 0
84 3 20.818727312622094 9.79383916327973 6.374132437678345 -1 1 0
1430 1 15.761121475994413 11.543562554510357 4.4424906439906815 -1 0 1
2082 3 16.80615710955097 8.252900173960258 7.466467693438578 -1 1 0
397 3 2.2564902125419115 9.74378553864812 2.8912947211477147 3 0 -1
650 1 0.6096258248513873 7.010436197208212 2.5706819620896946 -1 1 1
653 3 23.227995808942897 8.236094790203985 5.444451894130206 2 1 1
514 1 19.47190870159425 5.882042035185415 3.774736254157244 -1 1 0
696 3 22.034484899016647 15.549581896262898 4.696060021109213 1 2 0
770 3 0.23292379187188578 13.888473493986845 4.872826839010067 0 0 0
637 1 23.116395706158713 14.288117547274389 6.4044487820835165 1 0 1
301 1 1.993975240543232 14.142758018279224 6.788411427354128 2 0 1
476 3 3.6568343263488696 13.388869419470252 3.2816319957038815 -1 -1 1
404 1 7.681645199412625 12.318843731079731 7.0138099035678305 0 1 1
2257 3 5.650057257428065 13.686887590123195 5.7049892118744525 -1 2 0
1933 1 6.484770498417991 12.37607172845618 4.462428276841906 0 0 0
2377 3 8.483135814625117 12.749726710490455 5.290348836341685 -1 0 0
2294 3 11.076845157005575 10.725928992698531 4.95493895979406 2 1 1
449 1 10.615270147445388 13.169779676137177 5.6422917963267505 0 1 0
2103 1 13.665434908581204 12.20759090864761 6.541443119044543 0 0 0
241 1 13.958897429967884 13.542686269814585 3.555474410026028 -1 0 -1
1052 3 12.259475369929463 15.214619656180421 8.078067800745554 -1 0 0
2042 1 18.828405736260937 12.347420581722547 3.41096434530248 0 0 1
1784 3 18.09512170847499 13.86663520246592 4.80057336944225 0 1 1
569 3 15.259236405962685 16.3035011149755 4.864491992825264 -1 1 0
343 1 20.5192202684757 11.988926956364946 6.8804255623106165 0 0 -1
219 1 17.39822402527375 13.768071098563189 6.675833747571077 -3 0 -1
1930 1 21.918857622201482 9.995943807999572 4.396030742200322 -3 -1 1
554 3 20.9169548599103 12.164759558479918 4.545762410175753 0 1 0
1783 3 2.679613886058646 16.935845780250357 3.870143369473486 3 2 0
1325 1 0.1161136173149257 16.33715004658526 3.8067715509565105 -3 -1 1
1875 3 0.06377611422043396 17.62082349029324 6.118376131458358 1 0 -1
1839 1 2.5746642444938064 18.046497053289432 5.663343100969524 2 1 1
206 1 4.2888032870866315 15.127435952594626 4.885262425495634 -1 -1 -1
585 3 4.37602620005535 19.47245529985042 4.485841854978198 2 -1 0
1465 3 5.864642311168905 15.604249822605508 3.7821782019210106 1 2 0
1712 1 2.3320277364750472 18.265550293399077 2.3265633427968604 2 1 0
1312 1 5.623147368307923 17.939070714047176 3.570101131864271 0 1 0
88 3 10.30764800838232 14.177547483303453 3.586993975067681 1 0 1
2296 3 12.963970448958003 14.012840665040754 5.513060745716286 0 2 2
2318 1 10.894310512478853 16.644795787484014 7.105042041744223 1 1 1
1600 3 9.260088239732536 16.746161553065516 5.675625549875763 3 -1 1
173 3 12.515074295408365 17.510722355647037 5.789850055060815 1 -1 0
548 1 14.308769184353764 14.919730779383634 6.87975919739067 0 -1 0
366 3 14.512383146795981 16.754290514134805 8.181771765935443 2 1 0
1510 1 18.063765086258464 17.390086064099872 5.834342738499545 1 0 0
1060 3 16.628950555639122 18.779773611577237 6.985058660758074 1 1 1
950 1 19.938167475358934 15.289133688612974 5.682211101259521 -2 0 1
1713 1 19.87753703790307 16.696543915437175 8.182583480125018 -1 0 0
265 3 17.922909047182987 15.844224409032476 8.07795969954032 1 0 0
1065 3 23.75262535325072 21.78613760172004 4.829330983376565 -3 -1 1
1133 1 24.051958490772034 19.912067826429556 6.087167552336831 0 -1 -1
1770 3 1.8406453155918185 20.147304570055653 5.199871691817796 1 1 0
1497 3 0.35389211319852554 20.345965770497774 8.108992958305851 0 -1 0
2371 3 8.378146040205975 19.12763323355792 3.9030687181836954 1 1 0
411 1 3.221645380053281 20.950901768465354 6.80433975968236 2 -1 -1
2101 1 13.19425636624228 20.609415865017393 3.9474424233629763 -1 0 0
1595 3 10.518948216697522 19.991714772760957 5.420797682667373 1 0 1
1265 3 11.290320209814798 18.304885482260516 8.701587476295511 -1 -2 -1
1935 1 9.773349157836243 21.763928732519112 4.847442292765347 1 -1 1
2338 1 14.506923528933214 17.874771524270756 6.617848277470306 0 1 1
1825 1 12.294013605329909 20.050860988449863 6.848221003898487 -1 0 1
1894 3 13.985203326452574 20.67361150083033 6.108643286277716 -1 0 2
2140 1 17.20652500269697 18.059831127173094 9.284889846630739 -1 -1 0
2024 1 16.48542386273679 20.416430374154707 5.805241780876402 -1 0 1
2247 1 18.18974894819604 22.83427171592744 4.68258661593407 -1 0 2
946 1 19.858565018229175 19.30327599850565 6.232871048473933 -3 1 0
959 3 19.365981894870327 18.743277775286654 9.165958387158094 -1 0 0
281 3 21.596230753118917 20.57884157796619 6.968369178161457 -2 -1 -1
317 1 1.7316469601869227 23.194589336835776 4.709120086284633 0 1 0
80 3 0.7085675608103212 24.974888716738203 5.785398319447303 1 0 0
1741 1 4.445604187396455 27.319769105373876 7.61696902933213 -1 1 1
1058 3 5.757585805212729 24.1595660119116 7.579565308789008 0 -1 0
846 1 4.66899373449005 21.53446090361258 3.4324329147724075 -1 0 0
2039 1 7.451592629476084 23.13514104714954 6.2763421741473255 -1 0 0
2181 3 6.564722015648479 25.087967347131155 3.1518561796489637 1 0 0
1692 3 6.9507106814567114 22.020568224609583 4.311899714347812 -1 0 0
1779 3 9.069933555051836 24.029503189829605 4.820356614901238 0 1 1
221 1 11.449509755102044 23.749943075636462 5.850646887765129 2 0 0
789 3 11.551120638389184 22.742300621644144 4.109723626757614 1 -1 0
2249 1 15.03392399475812 22.46634990186579 6.69757110046982 -2 1 0
1662 3 12.910241067609741 23.303318487965225 7.337670084561807 -1 0 0
1668 3 15.94604220351424 23.265513575780503 4.469347222402815 -2 1 0
1867 3 18.649860796041448 25.007104061558646 4.708413332261903 -1 0 0
35 1 18.163163450331744 25.194853967795712 6.767877547876284 -3 -1 0
864 3 18.371793343102112 21.463957806263917 6.657484363514443 2 0 0
112 1 20.14657549819983 22.398626225641433 7.3464242952269645 0 -1 -1
535 1 21.844128410621995 22.277171391229704 3.5289621980374952 0 1 0
1638 1 22.736402060699312 22.160882408499816 6.727450550833464 1 1 0
383 3 21.244742729965353 23.374748866033364 5.48167216226527 -1 1 0
2107 1 4.576376488776376 25.02999749750277 4.377305645094867 1 -1 1
1106 1 1.6937598682200887 27.280151445917355 5.159994367110656 1 1 0
686 3 3.9825548555080066 27.455614327179372 5.08064657096555 0 -2 1
1872 3 6.560418468790449 26.710628669721572 7.268902945926121 0 0 0
879 3 13.445416893047888 26.03414511865244 5.165301307723055 -1 0 1
624 1 11.20021944755635 28.28907344616585 8.000393830193909 1 0 1
1153 3 8.062380512463301 27.41943992187412 5.0720841001163235 1 1 1
405 1 8.49681774567304 25.953513557737075 6.700978028619434 -1 0 -1
1659 3 10.431529966956111 26.283328299341598 7.860404398222627 -1 1 0
1755 3 16.474746625395586 26.935151212645877 6.47888422361886 -1 2 -1
59 3 11.786898121053898 29.788868566872292 6.100381412414074 0 -1 0
1042 1 12.50513403533344 28.394856134325135 4.492279336056341 1 0 0
1429 1 15.445834681241687 26.820403224421035 4.829256013384991 1 -1 0
1017 1 21.27410849056765 25.192057779934043 7.740921989466428 0 1 1
868 3 23.63610627974794 28.57370098156145 5.801060181424106 -2 1 0
1293 3 20.866137010984396 26.618917620718456 5.920853318328102 0 0 1
2032 1 18.517400309971585 27.584075317102048 5.198663211385137 -3 1 1
1558 3 22.678572649534072 33.75657731989222 6.420381121210715 -2 -1 1
1358 3 1.5548981495981664 30.654222676259035 6.699976152292071 1 -2 1
293 3 2.577803370790581 29.506013259966085 4.092830704125704 1 1 1
1525 1 3.370915465307284 29.98578073302018 5.787781295362875 2 -1 0
1029 1 0.4990688047610672 30.069092230127552 4.668230862592645 1 -1 0
2021 1 2.7881927668549515 31.084508804961793 2.7723576639385668 1 0 0
156 3 4.4551927700955805 32.132831637109156 3.66523624764016 1 -1 0
529 1 6.387265024213618 28.740866981423313 4.876140194475749 0 0 0
1687 3 5.547820838129806 29.429943331069463 6.922917502704351 2 -1 -1
733 1 9.848156591205688 28.818491288952142 4.883027684346628 -2 0 0
2130 1 7.206535941885966 31.5649982695662 6.615269202076628 2 0 0
2060 3 8.025408155923289 30.163560640347246 4.401064918367509 1 1 1
8 1 11.620535599066507 31.93236526053812 2.8412701250395846 1 -2 1
892 3 14.745263847733973 29.576128879863727 4.726399150791929 -1 -1 -1
336 1 14.339366438438761 29.617654929595936 6.830292446966192 1 0 -1
1074 3 19.313415436017074 29.3008938342136 6.137068642027462 1 1 -1
236 1 19.85730336510286 30.488386035452134 4.02939106865168 0 -1 0
1177 3 22.727116818852313 30.028202834397998 7.774421635603452 0 1 0
1578 3 22.03378736635767 30.79525602102615 4.616291439194955 0 -1 0
2225 1 21.111933011897076 31.345508508375126 6.346217417457226 -2 0 1
2235 1 1.4537328654274713 34.45212443236851 5.431443121234213 -1 0 0
1300 3 3.3206907634826797 34.48425803271659 4.1824665622821735 1 -3 0
578 3 6.698305925918798 34.99746533428082 5.6932697584500875 0 0 0
1503 1 7.193237123831379 33.661647008194606 3.7841143544463614 1 0 0
1025 1 4.132601606189577 33.20499496251121 5.317052541502895 2 0 0
9 1 8.413148511112873 34.79277151683558 6.842069450429748 0 -1 0
1658 3 8.515606413790655 33.10044523307201 5.574506907036781 0 0 1
2019 1 9.613947345153012 34.46740636479576 9.675355642483067 0 0 1
1455 3 17.790351815876896 34.622834331655135 6.3012778556242734 0 -1 0
2270 3 12.208758105286854 32.706215300570214 4.672405573294481 -3 1 1
130 1 11.547950122177792 32.26531837504747 7.293899103927751 1 -1 0
1605 1 14.20622305358508 31.68398338619041 4.757887259771927 0 0 0
2146 1 16.25369605351346 35.89935268780508 5.351270160986259 0 0 0
1509 1 17.344588936041486 35.84964280819256 8.438570812958153 0 0 0
814 1 19.573099486301214 33.70073284116368 6.972979690420305 0 0 0
1199 3 20.826170507138944 0.11581853769192363 4.327474736876365 -1 1 -1
401 1 22.533325844383075 35.846833169572804 5.4702209341896895 0 2 -1
2163 3 23.318390397830463 0.3454033225710039 7.421931530526751 0 0 0
1453 3 19.7637594545662 33.1724603270789 4.443797487579789 -3 0 0
825 1 2.6649582356581325 0.527479354059509 7.776980224057264 3 2 0
1373 3 0.8627747940061856 3.1262815187511532 9.6196316630585 0 0 0
2017 1 5.532089986517028 2.7931358179456938 7.091244243629116 -2 1 1
178 3 4.076082685338125 2.1367308611712774 7.882249411598788 1 -1 -1
1785 3 6.595907283603592 3.7412168501992027 8.69493569897225 0 1 1
2009 1 10.717614087346345 0.9434354511965612 7.293085954711367 -2 0 0
1719 1 8.181417820598051 2.563096371980329 8.572229999901435 -1 0 1
2180 3 9.951089223748511 2.90110398506532 7.002611651241539 -1 0 1
1486 3 12.365808162149447 1.2263829844273435 9.335692218918014 -1 -1 0
17 1 14.551686593822467 1.3731762199798947 8.569268001471324 -3 -1 0
904 1 21.029528324023428 1.2333977604653918 8.28221793751116 -1 -1 0
482 3 20.415928841600014 35.502065549340436 7.421894381305384 1 1 0
684 3 16.47870703543018 1.0693195495158687 9.892708846239813 1 1 0
791 3 20.219370189309835 34.962768488988765 10.453382239706507 0 0 -1
278 3 19.23881167098251 1.5964931507950753 9.72163019640732 -2 1 -1
1906 1 22.12247204394741 34.48767805414736 8.493025793798367 1 0 0
2245 1 0.4482117759130829 1.6467291827170394 12.231262354690749 1 1 1
1006 1 1.5565030222705836 4.535640840500679 11.013031989168907 1 0 0
1372 3 2.0058737704809295 7.901660903548069 10.439203919724742 0 -1 0
993 3 5.907139628361759 7.5206781702604895 7.222235678401729 2 0 1
2275 3 23.503805675052295 3.4465228069367626 12.500557006672384 -2 0 0
295 3 10.045241870355994 5.9441898903007795 10.677756923594414 1 1 0
2006 1 7.462873237148634 5.606822893154443 8.356844736370302 1 1 1
989 3 6.18324283062995 6.23922039497382 10.257580962265008 0 0 -1
1987 3 11.286437509657468 8.980404393943862 9.132347190110343 1 1 1
1221 1 11.040241129338865 6.818101117769146 8.709356924250594 1 0 1
283 3 12.348542924631426 5.317004330392529 8.603609071688457 1 0 0
1115 1 6.70267686547999 3.8319425945782033 11.228489140386506 -1 0 1
1332 1 15.721403652442278 2.8311580495978275 11.435578956653769 1 0 -1
1833 1 10.721238589857997 4.080864909187422 10.117227049224088 0 0 0
1274 3 15.31509269013235 3.06736818586472 9.44730278286195 0 0 1
895 3 14.38478302364675 7.594715613458107 9.412760796775114 0 2 -1
1269 3 17.951224004581913 4.958529763973216 7.944693407687951 -1 -1 1