#FLiNa 100 atoms 2,1,1 ratios

100  atoms
0  bonds
0  angles
0  dihedrals
0  impropers

3  atom types
0  bond types
0  angle types
0  dihedral types
0  improper types

0.0 10.900782602222215 xlo xhi
0.0 10.900782602222215 ylo yhi
0.0 10.900782602222215 zlo zhi

Masses

1 18.998403163    # F
2 6.938           # Li
3 22.989769       # Na

Atoms # 

 1 1 7.682 7.715 2.805
2 1 1.464 7.369 4.422
3 1 3.267 3.578 3.646
4 1 1.834 6.117 0.127
5 1 4.634 8.526 9.633
6 1 9.599 1.092 8.788
7 1 3.826 2.568 0.486
8 1 2.05 4.033 7.632
9 1 4.035 6.792 4.404
10 1 3.886 5.322 2.242
11 1 6.317 6.483 5.961
12 1 2.268 9.344 9.775
13 1 1.437 9.462 1.131
14 1 2.61 6.418 6.151
15 1 5.831 4.696 4.774
16 1 1.248 2.967 3.087
17 1 0.161 7.426 7.242
18 1 7.307 0.296 1.713
19 1 6.413 9.87 5.285
20 1 5.403 1.025 0.49 
21 1 4.184 1.15 6.172
22 1 1.458 9.551 4.084
23 1 3.331 1.435 8.271
24 1 6.912 2.426 4.502
25 1 8.969 6.738 5.877
26 1 8.768 9.146 1.028
27 1 4.206 1.65 2.412
28 1 9.327 4.539 0.084
29 1 8.706 9.644 4.969
30 1 7.265 3.336 1.58 
31 1 0.351 8.271 2.826
32 1 9.574 5.232 7.526
33 1 7.923 0.135 9.729
34 1 5.388 3.861 2.888
35 1 5.26 0.288 4.329
36 1 9.91 6.1 2.433
37 1 5.559 2.665 9.043
38 1 5.934 3.017 6.558
39 1 3.02 0.407 1.115
40 1 0.091 5.082 8.973
41 1 9.714 2.605 1.226
42 1 7.537 7.757 7.398
43 1 7.736 0.296 5.524
44 1 6.148 9.427 1.422
45 1 0.478 4.86 5.431
46 1 9.213 6.957 8.707
47 1 4.662 4.615 9.727
48 1 7.951 1.629 0.119
49 1 6.962 4.669 8.15 
50 1 7.685 9.859 7.07 
51 2 2.014 4.122 0.788
52 2 9.912 0.412 0.086
53 2 0.184 9.261 5.816
54 2 2.682 5.589 8.946
55 2 6.375 1.145 7.499
56 2 5.244 4.871 0.267
57 2 1.643 0.328 6.048
58 2 9.751 9.643 2.828
59 2 7.467 9.825 3.158
60 2 4.178 9.448 0.018
61 2 0.065 0.115 1.36 
62 2 5.696 6.136 3.122
63 2 9.682 2.986 7.735
64 2 9.067 4.191 3.23 
65 2 2.21 0.172 9.641
66 2 1.457 0.591 3.881
67 2 0.087 7.181 1.036
68 2 8.456 6.908 0.93 
69 2 2.225 9.871 6.103
70 2 4.062 7.743 1.62 
71 2 6.483 9.951 9.196
72 2 2.885 2.916 9.923
73 2 9.782 0.56 6.2 
74 2 2.382 7.966 7.912
75 2 5.853 6.892 0.223
76 2 4.81 8.768 3.919
77 2 3.897 4.494 6.112
78 2 9.761 0.524 2.221
79 2 9.875 9.013 7.475
80 2 3.43 9.907 2.173
81 2 6.766 6.862 9.886
82 2 9.405 2.618 5.244
83 2 0.026 2.992 7.359
84 2 1.908 6.034 2.399
85 2 4.993 9.684 7.515
86 2 8.36 3.479 9.87 
87 2 0.061 9.842 9.863
88 2 1.552 2.1 1.194
89 2 7.933 4.943 4.901
90 2 5.396 6.913 7.868
91 3 0.072 7.166 9.623
92 3 0.111 4.678 1.685
93 3 5.539 0.556 9.456
94 3 4.157 8.128 6.039
95 3 8.696 9.427 9.378
96 3 0.529 0.835 7.837
97 3 1.699 2.776 5.831
98 3 6.956 5.492 1.474
99 3 0.768 2.412 9.292
100 3 9.863 7.939 4.118