LAMMPS (29 Sep 2021 - Update 2)
OMP_NUM_THREADS environment is not set. Defaulting to 1 thread. (src/comm.cpp:98)
  using 1 OpenMP thread(s) per MPI task
# lmp -in therm.lammps
# Muller-Plathe method via fix thermal_conductivity

# conda activate nequip_cuda10.1
# export CUDA_VISIBLE_DEVICES=2
#   lmp -in run_therm_1300
# nohup lmp -in run_therm_1300 > therm_1300_job.out #job =8154
# 1) Initialization
units metal
dimension 3
newton off on
atom_style atomic
boundary p p p



# 2) System definition
#read_data	FLiNa_41_1000_startpoint.lammps
read_data	FLiNa_41_1300_100_startpoint.lammps
Reading data file ...
  orthogonal box = (0.0000000 0.0000000 0.0000000) to (10.900783 10.900783 10.900783)
  1 by 1 by 1 MPI processor grid
WARNING: Atom style in data file differs from currently defined atom style (src/read_data.cpp:516)
  reading atoms ...
  100 atoms
  read_data CPU = 0.001 seconds
#read_data	FLiNa_41_100_startpoint1.lammps

#read_data	tttt.lammps
#read_data	test.lammps

# 3) Simulation settings
pair_style	nequip
pair_coeff	* * FLiNa_f_pyt10.2 F Li Na #Li F Na

# 4) NPT:
replicate 2 3 4
Replicating atoms ...
  orthogonal box = (0.0000000 0.0000000 0.0000000) to (21.801565 32.702348 43.603130)
  1 by 1 by 1 MPI processor grid
  2400 atoms
  replicate CPU = 0.001 seconds

# thermo 1
# minimize 1.00e-9 1.0e-9 1000000 10000000
# run 100


timestep .001 # fetmoseconds
variable Tsim equal 1300 # Kelvin
velocity all create ${Tsim} 12335
velocity all create 1300 12335
# dump            dump1 all custom 1 traj_${Tsim}.lammpstrj id type xu yu zu
# dump_modify     dump1 sort id


#-------------------------------------------
# 1st equilibration run
#fix 1 all nve
fix 1 all nvt temp ${Tsim} ${Tsim} $(100.0*dt)
fix 1 all nvt temp 1300 ${Tsim} $(100.0*dt)
fix 1 all nvt temp 1300 1300 $(100.0*dt)
fix 1 all nvt temp 1300 1300 0.10000000000000000555
thermo          100
run 50000
Neighbor list info ...
  update every 1 steps, delay 10 steps, check yes
  max neighbors/atom: 2000, page size: 100000
  master list distance cutoff = 7
  ghost atom cutoff = 7
  binsize = 3.5, bins = 7 10 13
  1 neighbor lists, perpetual/occasional/extra = 1 0 0
  (1) pair nequip, perpetual
      attributes: full, newton off
      pair build: full/bin/atomonly
      stencil: full/bin/3d
      bin: standard
Per MPI rank memory allocation (min/avg/max) = 3.995 | 3.995 | 3.995 Mbytes
Step Temp E_pair E_mol TotEng Press 
       0         1300   -7054.3696            0    -6651.246    13850.743 
     100    5769.1468   -9731.8477            0   -7942.8636    61466.898 
     200     3675.591   -10199.704            0   -9059.9214    39161.281 
     300    2601.2543    -10504.64            0   -9698.0035    27714.849 
     400    1917.9135   -10671.445            0    -10076.71    20434.251 
     500    1552.0534   -10794.097            0   -10312.813    16536.225 
     600    1317.2976   -10867.862            0   -10459.375    14035.038 
     700    1203.5644   -10914.249            0    -10541.03    12823.277 
     800    1185.1578   -10927.589            0   -10560.077    12627.166 
     900    1276.3179   -10922.896            0   -10527.116    13598.424 
    1000    1368.5964   -10904.392            0   -10479.997    14581.597 
    1100    1353.0085   -10883.859            0   -10464.298    14415.517 
    1200    1309.7917   -10895.248            0   -10489.088    13955.067 
    1300    1291.6998   -10920.836            0   -10520.286    13762.308 
    1400    1237.2783   -10920.752            0   -10537.078    13182.479 
    1500    1286.9115   -10922.366            0   -10523.301    13711.292 
    1600    1337.5733   -10906.816            0   -10492.041    14251.065 
    1700    1350.1365   -10892.394            0   -10473.723    14384.918 
    1800    1317.5299   -10890.847            0   -10482.287    14037.513 
    1900    1301.9912   -10910.256            0   -10506.515    13871.958 
    2000    1261.1974   -10918.575            0   -10527.484    13437.323 
    2100    1223.8664   -10910.249            0   -10530.734    13039.584 
    2200    1296.9397    -10908.49            0   -10506.316    13818.137 
    2300    1346.4408   -10899.639            0   -10482.114    14345.542 
    2400    1355.8426   -10900.219            0   -10479.779    14445.714 
    2500    1277.1693    -10895.78            0   -10499.736    13607.495 
    2600    1259.6116   -10907.981            0   -10517.382    13420.428 
    2700    1267.0891   -10909.671            0   -10516.753    13500.096 
    2800    1300.5978   -10901.983            0   -10498.674    13857.112 
    2900    1334.3811   -10898.334            0   -10484.549    14217.053 
    3000    1321.1268   -10894.352            0   -10484.677    14075.836 
    3100    1294.1636   -10901.116            0   -10499.802    13788.559 
    3200    1266.4459   -10905.271            0   -10512.552    13493.243 
    3300    1272.7986   -10907.105            0   -10512.417    13560.928 
    3400    1311.5964   -10909.506            0   -10502.786    13974.296 
    3500     1301.325   -10899.525            0   -10495.991     13864.86 
    3600     1297.812   -10901.135            0    -10498.69    13827.431 
    3700    1294.0297    -10907.85            0   -10506.577    13787.133 
    3800     1283.677    -10909.75            0   -10511.688    13676.831 
    3900    1275.2646   -10907.793            0    -10512.34    13587.201 
    4000    1271.4169   -10901.164            0   -10506.904    13546.206 
    4100    1309.9498   -10901.003            0   -10494.794    13956.752 
    4200    1316.8959   -10899.118            0   -10490.755    14030.759 
    4300    1322.2589   -10907.673            0   -10497.647    14087.899 
    4400    1264.9459   -10902.294            0    -10510.04    13477.262 
    4500    1288.1029   -10912.538            0   -10513.104    13723.985 
    4600    1291.9452   -10902.813            0   -10502.188    13764.923 
    4700    1327.3405   -10905.292            0    -10493.69    14142.039 
    4800      1278.49   -10890.567            0   -10494.114    13621.566 
    4900    1306.4327   -10900.885            0   -10495.766     13919.28 
    5000    1287.3527   -10901.479            0   -10502.277    13715.993 
    5100    1295.9493   -10911.564            0   -10509.697    13807.585 
    5200    1293.4559    -10910.89            0   -10509.795    13781.019 
    5300    1292.9252   -10907.048            0   -10506.118    13775.364 
    5400    1316.7891   -10905.954            0   -10497.624    14029.621 
    5500    1295.3608   -10895.853            0   -10494.168    13801.315 
    5600    1303.7474   -10895.505            0   -10491.219    13890.669 
    5700    1300.2134   -10894.768            0   -10491.578    13853.016 
    5800    1310.7871   -10903.233            0   -10496.765    13965.673 
    5900    1322.7311   -10919.758            0   -10509.585    14092.929 
    6000    1283.3361   -10917.405            0   -10519.449    13673.198 
    6100    1237.9472   -10894.488            0   -10510.607    13189.606 
    6200    1311.9568   -10896.161            0    -10489.33    13978.135 
    6300    1325.4578   -10889.802            0   -10478.784    14121.981 
    6400    1328.5125   -10898.617            0   -10486.652    14154.527 
    6500    1311.5838   -10910.247            0   -10503.531    13974.161 
    6600    1265.7201   -10910.675            0   -10518.181     13485.51 
    6700    1255.8377    -10900.64            0   -10511.211    13380.219 
    6800    1318.7565   -10901.051            0   -10492.111    14050.583 
    6900    1322.7188   -10894.359            0   -10484.191    14092.799 
    7000     1325.082   -10899.994            0   -10489.093    14117.977 
    7100    1273.3271   -10894.473            0    -10499.62    13566.558 
    7200    1287.4548   -10907.363            0    -10508.13    13717.081 
    7300    1290.8366   -10912.991            0   -10512.709    13753.112 
    7400    1257.8958   -10903.988            0   -10513.921    13402.147 
    7500    1272.8514   -10899.467            0   -10504.762     13561.49 
    7600    1338.3323   -10907.652            0   -10492.642    14259.151 
    7700    1314.6761   -10899.629            0   -10491.954    14007.108 
    7800    1318.1793   -10906.429            0   -10497.668    14044.433 
    7900    1288.4468   -10901.917            0   -10502.376     13727.65 
    8000    1296.2558   -10900.892            0   -10498.929    13810.851 
    8100    1304.5436   -10903.533            0   -10499.001    13899.152 
    8200    1296.9654   -10902.369            0   -10500.187    13818.411 
    8300    1301.0575   -10908.128            0   -10504.676     13862.01 
    8400    1289.8506   -10911.336            0    -10511.36    13742.607 
    8500     1296.343   -10913.017            0   -10511.027    13811.779 
    8600    1297.1764   -10904.612            0   -10502.364    13820.659 
    8700    1321.8296   -10904.659            0   -10494.766    14083.324 
    8800    1301.2611   -10898.998            0   -10495.483    13864.179 
    8900    1314.9911   -10911.028            0   -10503.256    14010.464 
    9000    1275.9844   -10908.357            0   -10512.681    13594.871 
    9100    1287.9085   -10913.912            0   -10514.538    13721.915 
    9200    1324.0988   -10916.708            0   -10506.111    14107.502 
    9300    1295.1514   -10901.342            0   -10499.722    13799.083 
    9400    1327.7408   -10904.089            0   -10492.363    14146.305 
    9500    1335.2747   -10909.053            0   -10494.991    14226.574 
    9600    1272.7708   -10896.641            0   -10501.961    13560.632 
    9700    1304.2014   -10906.883            0   -10502.456    13895.506 
    9800    1300.0642   -10905.795            0   -10502.651    13851.426 
    9900    1312.0034   -10906.641            0   -10499.795    13978.632 
   10000    1275.8682   -10893.403            0   -10497.763    13593.632 
   10100    1326.8984   -10906.764            0   -10495.299    14137.329 
   10200    1300.1639   -10904.387            0   -10501.212    13852.489 
   10300     1269.875   -10902.194            0   -10508.412    13529.778 
   10400    1285.0374   -10903.273            0    -10504.79    13691.325 
   10500    1321.6374    -10906.91            0   -10497.077    14081.277 
   10600     1302.294   -10899.045            0    -10495.21    13875.183 
   10700    1339.8302   -10916.102            0   -10500.627     14275.11 
   10800     1278.037   -10904.913            0     -10508.6    13616.739 
   10900    1308.9215   -10913.802            0   -10507.912    13945.796 
   11000    1279.6119   -10901.974            0   -10505.172    13633.519 
   11100    1302.7074   -10903.985            0   -10500.022    13879.589 
   11200    1293.0864   -10895.059            0   -10494.079    13777.082 
   11300    1313.5806   -10901.345            0    -10494.01    13995.436 
   11400    1283.4857   -10896.886            0   -10498.883    13674.792 
   11500    1287.8267   -10902.603            0   -10503.254    13721.043 
   11600    1290.3483   -10907.353            0   -10507.222    13747.909 
   11700    1323.1737   -10918.573            0   -10508.264    14097.645 
   11800    1285.7625   -10907.144            0   -10508.435    13699.051 
   11900    1315.0845   -10908.217            0   -10500.416    14011.459 
   12000    1322.2142   -10902.506            0   -10492.494    14087.422 
   12100    1317.2034   -10905.929            0    -10497.47    14034.034 
   12200    1289.6753   -10907.406            0   -10507.484    13740.739 
   12300    1298.4491   -10914.474            0   -10511.831    13834.218 
   12400    1299.3883   -10915.368            0   -10512.434    13844.225 
   12500    1282.7279    -10905.45            0   -10507.683    13666.718 
   12600    1277.5887   -10896.321            0   -10500.147    13611.963 
   12700     1325.034   -10904.945            0   -10494.059    14117.465 
   12800    1313.2243   -10898.313            0   -10491.089     13991.64 
   12900    1313.0736   -10906.779            0   -10499.602    13990.034 
   13000    1279.6343   -10911.721            0   -10514.912    13633.757 
   13100      1267.21   -10911.397            0   -10518.442    13501.384 
   13200    1279.2418   -10905.352            0   -10508.665    13629.576 
   13300    1287.5426   -10895.582            0   -10496.321    13718.016 
   13400    1310.7979   -10898.438            0   -10491.966    13965.788 
   13500    1325.5958    -10913.78            0    -10502.72    14123.451 
   13600    1309.6843   -10917.146            0   -10511.019    13953.924 
   13700    1277.5106   -10906.118            0   -10509.968    13611.132 
   13800    1304.4261   -10906.312            0   -10501.816      13897.9 
   13900    1328.4076   -10907.648            0   -10495.716    14153.409 
   14000    1294.0925   -10897.071            0    -10495.78    13787.802 
   14100    1296.7693   -10893.708            0   -10491.586    13816.321 
   14200    1278.6097   -10887.957            0   -10491.466    13622.841 
   14300    1312.5774   -10897.815            0   -10490.792    13984.747 
   14400    1280.5154   -10892.891            0   -10495.809    13643.146 
   14500    1287.0616   -10896.046            0   -10496.934    13712.892 
   14600    1297.6401   -10901.934            0   -10499.542      13825.6 
   14700    1326.0468   -10919.006            0   -10507.805    14128.257 
   14800    1270.2412   -10910.283            0   -10516.388     13533.68 
   14900    1314.0551   -10914.966            0   -10507.484    14000.491 
   15000    1307.1242   -10901.146            0   -10495.813    13926.647 
   15100    1315.6918   -10900.764            0   -10492.774     14017.93 
   15200    1308.9978   -10905.772            0   -10499.859    13946.609 
   15300    1283.4705   -10906.721            0   -10508.723     13674.63 
   15400     1282.715   -10903.898            0   -10506.135    13666.581 
   15500    1318.0434   -10906.508            0   -10497.789    14042.984 
   15600    1301.0307   -10899.389            0   -10495.945    13861.724 
   15700    1305.8505    -10901.07            0   -10496.133    13913.076 
   15800     1337.079    -10913.24            0   -10498.619    14245.798 
   15900    1297.0156    -10906.79            0   -10504.592    13818.946 
   16000    1290.9723   -10911.693            0   -10511.369    13754.558 
   16100     1257.801   -10896.791            0   -10506.753    13401.137 
   16200    1322.2661   -10900.302            0   -10490.274    14087.975 
   16300    1329.5906   -10892.526            0   -10480.227    14166.013 
   16400    1339.0263   -10901.791            0   -10486.566    14266.545 
   16500    1273.6435   -10898.604            0   -10503.653     13569.93 
   16600    1267.1671   -10906.407            0   -10513.465    13500.927 
   16700    1286.9981   -10910.113            0   -10511.021    13712.215 
   16800    1329.0078   -10912.909            0    -10500.79    14159.804 
   16900    1326.9946   -10906.043            0   -10494.548    14138.355 
   17000    1295.8429   -10900.126            0   -10498.291    13806.451 
   17100    1262.2041   -10892.861            0   -10501.458     13448.05 
   17200    1293.9668   -10900.183            0    -10498.93    13786.462 
   17300    1320.4983   -10904.949            0   -10495.469     14069.14 
   17400    1306.7048   -10905.192            0    -10499.99    13922.179 
   17500    1319.4735   -10917.239            0   -10508.077    14058.222 
   17600    1306.2205   -10921.405            0   -10516.353    13917.018 
   17700    1269.1446    -10911.61            0   -10518.055    13521.996 
   17800    1291.9902   -10906.459            0   -10505.819    13765.403 
   17900    1306.9735   -10898.226            0    -10492.94    13925.041 
   18000    1314.3044   -10895.611            0   -10488.052    14003.148 
   18100    1318.7652   -10899.203            0   -10490.261    14050.675 
   18200    1287.0476   -10901.554            0   -10502.447    13712.742 
   18300    1292.9572    -10914.46            0    -10513.52    13775.706 
   18400    1302.1553   -10923.082            0    -10519.29    13873.706 
   18500    1274.2811    -10907.42            0   -10512.272    13576.723 
   18600    1286.9335   -10893.345            0   -10494.273    13711.527 
   18700    1312.0989   -10891.456            0   -10484.581    13979.649 
   18800    1336.1607   -10908.391            0   -10494.054    14236.013 
   18900    1283.3083   -10907.091            0   -10509.143    13672.902 
   19000    1253.5911   -10903.518            0   -10514.785    13356.282 
   19100    1306.1706   -10908.774            0   -10503.737    13916.487 
   19200    1308.9945   -10894.782            0   -10488.869    13946.574 
   19300     1317.745   -10894.113            0   -10485.487    14039.805 
   19400    1313.5035   -10902.299            0   -10494.988    13994.614 
   19500    1262.7417   -10898.684            0   -10507.114    13453.777 
   19600    1289.6374   -10905.349            0   -10505.438    13740.336 
   19700    1307.4659    -10900.64            0   -10495.201    13930.288 
   19800    1327.5144   -10897.223            0   -10485.567    14143.893 
   19900    1314.2021   -10892.025            0   -10484.498    14002.058 
   20000    1294.6768   -10898.771            0   -10497.298    13794.027 
   20100    1264.0206    -10899.34            0   -10507.373    13467.403 
   20200    1283.5762    -10908.29            0   -10510.259    13675.757 
   20300    1313.5546   -10913.273            0   -10505.947    13995.159 
   20400    1313.5098   -10903.521            0   -10496.209    13994.681 
   20500    1290.3976   -10891.023            0   -10490.877    13748.435 
   20600    1332.5464   -10901.193            0   -10487.977    14197.506 
   20700    1293.7686   -10900.093            0   -10498.901    13784.351 
   20800    1288.4032   -10903.259            0   -10503.731    13727.185 
   20900    1299.1024   -10907.626            0   -10504.781    13841.179 
   21000    1275.4204   -10899.555            0   -10504.053    13588.862 
   21100    1311.2912   -10906.367            0   -10499.742    13971.043 
   21200    1330.3889   -10913.845            0   -10501.298    14174.518 
   21300    1283.2676   -10911.293            0   -10513.358    13672.469 
   21400    1267.4802   -10905.741            0   -10512.702    13504.263 
   21500    1312.1332   -10903.104            0   -10496.217    13980.015 
   21600    1296.2983   -10895.908            0   -10493.932    13811.303 
   21700     1298.549    -10898.91            0   -10496.236    13835.283 
   21800    1321.9542   -10911.078            0   -10501.147    14084.652 
   21900    1276.0315   -10906.625            0   -10510.934    13595.373 
   22000    1301.7257   -10918.035            0   -10514.376     13869.13 
   22100    1289.0166   -10903.332            0   -10503.614    13733.721 
   22200    1344.8815   -10909.426            0   -10492.385    14328.929 
   22300    1290.6396   -10897.541            0    -10497.32    13751.013 
   22400    1280.3531   -10905.435            0   -10508.403    13641.416 
   22500    1258.0865   -10906.185            0   -10516.058    13404.179 
   22600    1341.1852   -10919.745            0    -10503.85    14289.547 
   22700    1324.8541   -10904.524            0   -10493.694    14115.549 
   22800     1315.128   -10905.828            0   -10498.013    14011.922 
   22900    1271.5249   -10905.365            0   -10511.072    13547.357 
   23000    1293.7488   -10916.067            0   -10514.882     13784.14 
   23100    1298.9122   -10912.651            0   -10509.865    13839.153 
   23200    1317.5508   -10916.344            0   -10507.778    14037.736 
   23300    1284.8068   -10901.513            0     -10503.1    13688.868 
   23400    1341.1747   -10913.258            0   -10497.366    14289.435 
   23500    1289.0174   -10908.872            0   -10509.154     13733.73 
   23600    1250.6268   -10907.863            0    -10520.05      13324.7 
   23700    1268.0402   -10904.892            0   -10511.679     13510.23 
   23800    1301.6297   -10907.027            0   -10503.398    13868.106 
   23900    1315.7343   -10909.955            0   -10501.952    14018.382 
   24000    1265.9179   -10900.118            0   -10507.563    13487.618 
   24100    1286.6353   -10907.146            0   -10508.167     13708.35 
   24200    1313.0319   -10903.014            0   -10495.849     13989.59 
   24300    1323.2721   -10899.107            0   -10488.767    14098.693 
   24400    1315.4754   -10903.227            0   -10495.304    14015.624 
   24500    1287.2405   -10906.271            0   -10507.105    13714.798 
   24600    1289.1642   -10907.539            0   -10507.776    13735.293 
   24700     1296.663   -10904.156            0   -10502.067    13815.189 
   24800    1331.3543   -10910.704            0   -10497.858    14184.804 
   24900    1322.4589   -10910.006            0   -10499.918    14090.029 
   25000    1261.3504   -10898.813            0   -10507.675    13438.953 
   25100    1296.8871   -10913.455            0   -10511.297    13817.577 
   25200    1265.6534   -10914.833            0    -10522.36      13484.8 
   25300    1270.6893   -10912.377            0   -10518.342    13538.454 
   25400    1313.6625   -10910.679            0   -10503.318    13996.309 
   25500    1314.0701    -10904.14            0   -10496.653    14000.651 
   25600    1322.9603   -10906.914            0   -10496.671    14095.371 
   25700    1296.3227   -10908.802            0   -10506.818    13811.563 
   25800     1235.214   -10906.218            0   -10523.184    13160.486 
   25900    1289.5017   -10918.069            0   -10518.201     13738.89 
   26000    1313.2395   -10918.674            0   -10511.445    13991.802 
   26100    1324.7913   -10913.568            0   -10502.757     14114.88 
   26200     1297.639   -10898.695            0   -10496.304    13825.588 
   26300    1341.2376   -10909.271            0   -10493.359    14290.106 
   26400    1291.4332   -10899.581            0   -10499.114    13759.469 
   26500    1306.9479    -10906.15            0   -10500.872    13924.769 
   26600    1306.6868   -10907.151            0   -10501.954    13921.987 
   26700    1284.2956   -10911.262            0   -10513.008    13683.422 
   26800    1249.6753   -10913.434            0   -10525.915    13314.562 
   26900    1269.5678    -10910.76            0   -10517.073    13526.505 
   27000    1305.7316   -10903.926            0   -10499.025     13911.81 
   27100    1305.9493   -10900.381            0   -10495.412    13914.129 
   27200    1312.8892   -10899.803            0   -10492.682    13988.069 
   27300    1304.7136   -10904.493            0   -10499.908    13900.964 
   27400    1283.0704   -10907.317            0   -10509.444    13670.368 
   27500    1308.8534   -10910.423            0   -10504.554     13945.07 
   27600    1311.3214   -10893.047            0   -10486.413    13971.365 
   27700    1332.5514   -10899.152            0   -10485.935    14197.558 
   27800    1311.1496   -10901.623            0   -10495.042    13969.535 
   27900    1307.7813   -10907.617            0   -10502.081    13933.648 
   28000    1293.9663       -10911            0   -10509.747    13786.457 
   28100    1311.4517   -10925.325            0    -10518.65    13972.754 
   28200    1248.4156   -10919.944            0   -10532.817    13301.141 
   28300    1268.5314   -10913.483            0   -10520.118    13515.463 
   28400    1315.8026   -10916.002            0   -10507.978     14019.11 
   28500    1312.2084   -10908.932            0   -10502.022    13980.816 
   28600    1304.2037   -10904.146            0   -10499.718    13895.531 
   28700    1274.6974   -10900.532            0   -10505.255    13581.158 
   28800     1300.694   -10915.682            0   -10512.343    13858.136 
   28900    1268.6755   -10908.823            0   -10515.413    13516.998 
   29000    1302.7495   -10906.649            0   -10502.673    13880.037 
   29100    1320.5566   -10903.707            0   -10494.209    14069.762 
   29200    1280.6593   -10895.193            0   -10498.067    13644.679 
   29300    1288.6638   -10900.381            0   -10500.773    13729.962 
   29400    1322.4467   -10916.807            0   -10506.722    14089.899 
   29500    1282.8945   -10912.357            0   -10514.538    13668.494 
   29600    1281.9528   -10905.998            0   -10508.471     13658.46 
   29700    1295.9131   -10896.035            0   -10494.179    13807.199 
   29800    1326.8036   -10900.113            0   -10488.678     14136.32 
   29900    1298.8395   -10895.917            0   -10493.153    13838.378 
   30000    1296.2418   -10904.313            0   -10502.355    13810.701 
   30100    1252.3408   -10907.623            0   -10519.278    13342.962 
   30200    1271.0353   -10913.642            0     -10519.5    13542.141 
   30300    1293.4981   -10912.536            0   -10511.429    13781.469 
   30400    1289.0133   -10903.205            0   -10503.488    13733.686 
   30500    1287.5107   -10900.701            0    -10501.45    13717.676 
   30600    1286.8194    -10901.79            0   -10502.754    13710.312 
   30700     1292.681   -10907.489            0   -10506.635    13772.763 
   30800    1283.0754   -10897.029            0   -10499.154    13670.421 
   30900    1322.2201   -10898.398            0   -10488.384    14087.485 
   31000    1325.4866    -10904.69            0   -10493.664    14122.287 
   31100    1285.0598    -10908.03            0    -10509.54    13691.563 
   31200    1294.2888   -10913.776            0   -10512.424    13789.893 
   31300    1265.7107   -10901.868            0   -10509.377     13485.41 
   31400    1336.3131   -10910.332            0   -10495.948    14237.638 
   31500     1341.085   -10908.591            0   -10492.727     14288.48 
   31600    1303.9955   -10903.636            0   -10499.273    13893.312 
   31700    1256.3996   -10893.149            0   -10503.546    13386.206 
   31800    1291.2746   -10899.068            0    -10498.65    13757.779 
   31900     1321.592    -10903.77            0    -10493.95    14080.793 
   32000    1313.8545   -10901.995            0   -10494.575    13998.354 
   32100    1275.9405    -10902.37            0   -10506.707    13594.403 
   32200      1293.35   -10917.693            0   -10516.632     13779.89 
   32300    1307.1781   -10916.033            0   -10510.684    13927.221 
   32400    1305.6935   -10903.426            0   -10498.537    13911.403 
   32500    1325.0103   -10907.946            0   -10497.067    14117.212 
   32600    1318.8751   -10909.004            0   -10500.027    14051.846 
   32700    1336.6063   -10916.026            0   -10501.551    14240.762 
   32800    1320.1174   -10913.912            0    -10504.55    14065.082 
   32900    1302.0746   -10912.494            0   -10508.727    13872.846 
   33000    1294.3127   -10920.544            0   -10519.184    13790.148 
   33100     1277.977    -10915.41            0   -10519.116      13616.1 
   33200    1314.1083   -10908.777            0   -10501.279    14001.058 
   33300     1312.817   -10903.879            0   -10496.781      13987.3 
   33400     1308.392   -10905.889            0   -10500.163    13940.155 
   33500    1269.3905   -10905.028            0   -10511.397    13524.616 
   33600    1293.5165   -10915.143            0   -10514.029    13781.665 
   33700     1298.444     -10906.4            0   -10503.759    13834.165 
   33800    1326.1967   -10903.181            0   -10491.934    14129.853 
   33900     1312.974   -10903.522            0   -10496.376    13988.973 
   34000    1282.1953   -10908.116            0   -10510.514    13661.044 
   34100    1286.2007   -10910.002            0   -10511.157    13703.719 
   34200    1311.6682   -10909.316            0   -10502.575     13975.06 
   34300    1279.1909   -10892.772            0   -10496.102    13629.034 
   34400    1314.8911   -10901.201            0    -10493.46    14009.399 
   34500    1313.3765   -10902.747            0   -10495.475    13993.261 
   34600      1295.89   -10903.434            0   -10501.584    13806.953 
   34700     1287.549   -10907.767            0   -10508.504    13718.085 
   34800     1274.834   -10918.307            0   -10522.987    13582.614 
   34900    1264.4378   -10912.731            0   -10520.635    13471.848 
   35000    1280.2471   -10902.487            0   -10505.489    13640.287 
   35100    1311.0082   -10905.512            0   -10498.975    13968.029 
   35200    1309.6228   -10904.844            0   -10498.736    13953.268 
   35300    1274.2323   -10902.747            0   -10507.614    13576.202 
   35400    1227.2364   -10902.622            0   -10522.062    13075.489 
   35500    1305.1433   -10925.717            0   -10520.998    13905.542 
   35600    1284.9024   -10899.658            0   -10501.216    13689.887 
   35700    1327.3476   -10908.156            0   -10496.552    14142.116 
   35800    1314.0992   -10906.465            0   -10498.969    14000.961 
   35900    1320.4222   -10912.007            0    -10502.55    14068.329 
   36000    1263.9945    -10904.34            0   -10512.381    13467.125 
   36100    1294.3689   -10908.873            0   -10507.496    13790.746 
   36200     1315.533   -10898.293            0   -10490.353    14016.237 
   36300    1310.4706   -10896.656            0   -10490.286      13962.3 
   36400    1300.6417   -10900.238            0   -10496.916    13857.579 
   36500    1319.3922   -10916.419            0   -10507.282    14057.355 
   36600    1254.0721   -10912.354            0   -10523.473    13361.407 
   36700    1292.3908   -10922.035            0   -10521.271    13769.671 
   36800     1291.254   -10913.126            0   -10512.714    13757.559 
   36900    1297.5889    -10907.17            0   -10504.794    13825.054 
   37000    1314.1258   -10902.283            0   -10494.779    14001.244 
   37100    1309.7719   -10896.656            0   -10490.502    13954.857 
   37200    1292.3539   -10906.449            0   -10505.697    13769.278 
   37300    1298.2794   -10918.515            0   -10515.925     13832.41 
   37400    1333.8288   -10925.323            0   -10511.709    14211.169 
   37500    1292.2403   -10907.643            0   -10506.925    13768.067 
   37600    1304.3892   -10903.421            0   -10498.936    13897.507 
   37700    1337.6313   -10903.253            0    -10488.46    14251.682 
   37800    1291.6997   -10904.012            0   -10503.462    13762.308 
   37900    1290.0477   -10912.256            0   -10512.218    13744.706 
   38000    1287.1467   -10908.671            0   -10509.533    13713.798 
   38100    1301.2577   -10904.645            0   -10501.131    13864.143 
   38200    1319.6971   -10904.622            0    -10495.39    14060.604 
   38300    1333.7527   -10894.244            0   -10480.654    14210.358 
   38400    1354.8066   -10896.266            0   -10476.147    14434.675 
   38500    1357.1036   -10912.828            0   -10491.997    14459.149 
   38600    1286.3497   -10899.287            0   -10500.396    13705.306 
   38700     1298.603   -10902.487            0   -10499.797    13835.859 
   38800       1301.7   -10899.537            0   -10495.886    13868.855 
   38900    1303.2629    -10901.78            0   -10497.645    13885.507 
   39000    1289.9916   -10909.016            0   -10508.996    13744.109 
   39100     1282.063   -10914.028            0   -10516.467    13659.634 
   39200    1286.9052   -10910.879            0   -10511.816    13711.225 
   39300    1339.8762   -10910.897            0   -10495.408    14275.601 
   39400    1313.6344    -10902.92            0   -10495.568    13996.009 
   39500    1317.1347   -10907.064            0   -10498.627    14033.303 
   39600    1280.6656   -10899.265            0   -10502.137    13644.746 
   39700    1286.0841   -10900.865            0   -10502.057    13702.477 
   39800    1301.8857   -10906.395            0   -10502.686    13870.834 
   39900    1325.7336    -10916.47            0   -10505.366    14124.919 
   40000    1304.7953   -10911.757            0   -10507.146    13901.833 
   40100     1322.631   -10917.854            0   -10507.713    14091.863 
   40200    1272.6665   -10912.018            0    -10517.37     13559.52 
   40300     1251.319   -10914.137            0   -10526.109    13332.075 
   40400    1276.5677   -10914.823            0   -10518.966    13601.085 
   40500    1308.8171   -10908.559            0   -10502.701    13944.684 
   40600    1317.2358   -10902.461            0   -10493.993    14034.381 
   40700    1284.0571   -10891.972            0   -10493.792    13680.881 
   40800    1297.8467   -10902.408            0   -10499.952      13827.8 
   40900    1301.6242   -10914.574            0   -10510.947    13868.047 
   41000    1282.7017   -10919.159            0     -10521.4    13666.439 
   41100    1301.2059   -10915.232            0   -10511.735    13863.591 
   41200    1296.6717   -10902.049            0   -10499.957    13815.282 
   41300    1334.0495   -10912.191            0   -10498.509     14213.52 
   41400    1287.0013   -10900.675            0   -10501.582    13712.249 
   41500    1267.8794   -10901.486            0   -10508.323    13508.517 
   41600    1295.3918   -10912.269            0   -10510.574    13801.645 
   41700    1304.9848   -10903.662            0   -10498.993    13903.853 
   41800    1319.8682   -10900.133            0   -10490.848    14062.427 
   41900    1314.0734   -10900.685            0   -10493.197    14000.686 
   42000    1293.0358   -10912.175            0   -10511.211    13776.543 
   42100    1278.8231   -10911.461            0   -10514.904    13625.116 
   42200     1274.082   -10905.457            0    -10510.37    13574.601 
   42300    1312.4161   -10908.544            0    -10501.57    13983.029 
   42400     1323.939   -10904.562            0   -10494.016    14105.799 
   42500    1359.5355   -10897.184            0   -10475.598    14485.059 
   42600    1296.9844   -10887.358            0    -10485.17    13818.613 
   42700     1298.415   -10898.975            0   -10496.342    13833.856 
   42800    1306.2401   -10900.801            0   -10495.742    13917.227 
   42900    1302.5364   -10901.916            0   -10498.006    13877.767 
   43000    1297.1554   -10908.262            0    -10506.02    13820.435 
   43100    1290.5415   -10916.986            0   -10516.796    13749.967 
   43200     1289.919   -10911.798            0     -10511.8    13743.335 
   43300    1325.8633   -10905.469            0   -10494.325    14126.301 
   43400    1317.6279   -10904.349            0   -10495.759    14038.558 
   43500    1306.4306   -10908.541            0   -10503.423    13919.257 
   43600     1289.835   -10913.219            0   -10513.247    13742.441 
   43700    1276.3479   -10907.377            0   -10511.588    13598.743 
   43800    1317.3534   -10899.185            0    -10490.68    14035.633 
   43900    1324.6022   -10903.151            0   -10492.399    14112.864 
   44000    1292.1739   -10904.284            0   -10503.587     13767.36 
   44100    1302.2794    -10907.92            0   -10504.089    13875.028 
   44200    1316.7122   -10907.111            0   -10498.805    14028.801 
   44300    1332.6483   -10900.588            0    -10487.34    14198.592 
   44400    1298.0775   -10897.066            0   -10494.539    13830.259 
   44500    1298.9014   -10911.529            0   -10508.746    13839.037 
   44600    1331.0857    -10922.13            0   -10509.367    14181.943 
   44700    1294.7116    -10906.51            0   -10505.026    13794.398 
   44800    1314.2227   -10900.306            0   -10492.772    14002.277 
   44900    1356.2406   -10898.902            0   -10478.339    14449.954 
   45000    1293.5071   -10892.513            0   -10491.402    13781.565 
   45100    1313.2642   -10910.835            0   -10503.598    13992.065 
   45200    1293.0204    -10904.63            0   -10503.671    13776.379 
   45300    1332.3227   -10908.518            0   -10495.371    14195.122 
   45400    1302.3176   -10900.493            0   -10496.651    13875.435 
   45500    1295.2251   -10912.828            0   -10511.185    13799.869 
   45600     1293.172   -10917.271            0   -10516.264    13777.994 
   45700    1290.5435   -10909.194            0   -10509.003     13749.99 
   45800     1293.329    -10904.35            0   -10503.295    13779.667 
   45900    1287.0633   -10905.509            0   -10506.397     13712.91 
   46000    1279.4316   -10907.406            0   -10510.661    13631.598 
   46100    1279.8633    -10909.97            0    -10513.09    13636.198 
   46200       1309.5   -10917.255            0   -10511.185     13951.96 
   46300    1284.2936   -10911.877            0   -10513.624      13683.4 
   46400    1286.9033   -10911.614            0   -10512.552    13711.205 
   46500    1326.2686   -10910.392            0   -10499.122    14130.619 
   46600    1326.1008   -10904.655            0   -10493.438    14128.832 
   46700    1284.9511   -10896.987            0    -10498.53    13690.406 
   46800    1314.4356   -10907.427            0   -10499.827    14004.545 
   46900    1267.6171   -10905.449            0   -10512.367    13505.721 
   47000    1265.8818   -10914.215            0   -10521.671    13487.233 
   47100    1269.7962   -10905.769            0   -10512.011    13528.939 
   47200    1325.5398    -10910.98            0   -10499.937    14122.855 
   47300    1281.4109   -10898.924            0   -10501.565    13652.687 
   47400    1291.2704   -10903.606            0    -10503.19    13757.733 
   47500    1277.4947   -10902.142            0   -10505.997    13610.962 
   47600    1326.1143   -10915.187            0   -10503.965    14128.975 
   47700    1306.2478   -10904.334            0   -10499.273    13917.309 
   47800    1313.9209   -10901.256            0   -10493.815    13999.062 
   47900    1347.8043   -10900.973            0   -10483.025     14360.07 
   48000    1339.4249   -10904.104            0   -10488.754    14270.792 
   48100    1306.3316   -10907.976            0   -10502.889    13918.202 
   48200    1306.2283   -10910.752            0   -10505.697    13917.101 
   48300    1288.4693    -10908.77            0   -10509.222     13727.89 
   48400     1271.352   -10906.104            0   -10511.863    13545.515 
   48500    1309.4661    -10915.56            0   -10509.501    13951.598 
   48600    1287.7296   -10909.438            0   -10510.119    13720.008 
   48700    1266.3688   -10902.716            0   -10510.021    13492.422 
   48800    1344.0575   -10914.523            0   -10497.738     14320.15 
   48900     1309.866   -10899.175            0   -10492.992    13955.859 
   49000    1294.6684    -10901.38            0    -10499.91    13793.938 
   49100    1281.7056   -10914.334            0   -10516.883    13655.827 
   49200    1289.0528    -10915.76            0   -10516.031    13734.106 
   49300    1288.5746   -10909.705            0   -10510.124    13729.012 
   49400    1334.9441   -10913.793            0   -10499.833    14223.052 
   49500    1313.4935   -10899.412            0   -10492.104    13994.508 
   49600    1339.3878   -10903.889            0   -10488.551    14270.396 
   49700    1353.6238   -10909.035            0   -10489.283    14422.073 
   49800    1268.1105   -10898.979            0   -10505.744    13510.978 
   49900    1295.6227   -10913.055            0   -10511.288    13804.105 
   50000    1289.4304   -10908.801            0   -10508.955    13738.129 
Loop time of 14601.4 on 1 procs for 50000 steps with 2400 atoms

Performance: 0.296 ns/day, 81.119 hours/ns, 3.424 timesteps/s
94.9% CPU use with 1 MPI tasks x 1 OpenMP threads

MPI task timing breakdown:
Section |  min time  |  avg time  |  max time  |%varavg| %total
---------------------------------------------------------------
Pair    | 14560      | 14560      | 14560      |   0.0 | 99.72
Neigh   | 33.457     | 33.457     | 33.457     |   0.0 |  0.23
Comm    | 3.3226     | 3.3226     | 3.3226     |   0.0 |  0.02
Output  | 0.016854   | 0.016854   | 0.016854   |   0.0 |  0.00
Modify  | 3.4722     | 3.4722     | 3.4722     |   0.0 |  0.02
Other   |            | 0.9987     |            |       |  0.01

Nlocal:        2400.00 ave        2400 max        2400 min
Histogram: 1 0 0 0 0 0 0 0 0 0
Nghost:        5001.00 ave        5001 max        5001 min
Histogram: 1 0 0 0 0 0 0 0 0 0
Neighs:         0.00000 ave           0 max           0 min
Histogram: 1 0 0 0 0 0 0 0 0 0
FullNghs:      263914.0 ave      263914 max      263914 min
Histogram: 1 0 0 0 0 0 0 0 0 0

Total # of neighbors = 263914
Ave neighs/atom = 109.96417
Neighbor list builds = 2308
Dangerous builds = 11

velocity        all scale ${Tsim}
velocity        all scale 1300
unfix           1

#-----------------------------------------
# 2nd equilibration run
compute         ke all ke/atom
variable        temp atom c_ke/1.5

fix             1 all nve

compute         layers all chunk/atom bin/1d z lower 0.05 units reduced # <--- delta z ?
fix             2 all ave/chunk 10 100 1000 layers v_temp file profile.mp # <--- use every 10 steps, 100 times, repeat every 1000 steps
fix             3 all thermal/conductivity 10 z 20 # <--- perform kintic energy swap every 10 steps, using 20 bins

variable        tdiff equal f_2[11][3]-f_2[1][3]
thermo_style    custom step temp epair etotal f_3 v_tdiff
thermo          1000
#thermo_modify   colname f_3 E_delta colname v_tdiff dTemp_step


run 200000
Per MPI rank memory allocation (min/avg/max) = 4.245 | 4.245 | 4.245 Mbytes
Step Temp E_pair TotEng f_3 v_tdiff 
   50000         1300     -10908.8   -10505.676            0            0 
   51000    1296.7686   -10907.815   -10505.694     49.94749  0.035750006 
   52000    1311.2369   -10912.304   -10505.696    95.785108   0.05055071 
   53000    1306.9651   -10910.973   -10505.689     140.8843  0.057436782 
   54000    1298.2138   -10908.254   -10505.684    186.46345   0.06497676 
   55000    1312.0883   -10912.563   -10505.691    231.77063  0.059597332 
   56000    1289.9081   -10905.685    -10505.69    274.39913  0.069493996 
   57000    1264.2935    -10897.73   -10505.679    315.62883  0.070357618 
   58000    1273.3023   -10900.541   -10505.696    360.28207  0.067991955 
   59000    1297.2205   -10907.952    -10505.69    404.62132  0.078018484 
   60000    1300.3005   -10908.907    -10505.69    447.60396  0.077120342 
   61000    1301.1429   -10909.176   -10505.698    490.52878  0.072879078 
   62000    1263.7946   -10897.604   -10505.707    533.17385  0.067976241 
   63000    1304.3559    -10910.19   -10505.716    573.39925    0.0702574 
   64000    1278.9872   -10902.312   -10505.705    616.51553   0.06914063 
   65000    1295.3349   -10907.373   -10505.696    659.49704  0.072009749 
   66000    1304.8509   -10910.336   -10505.708     700.2978  0.073954311 
   67000    1306.2058    -10910.76   -10505.712    743.18291   0.06696169 
   68000    1274.5054   -10900.922   -10505.704     783.7466  0.064646573 
   69000    1269.6373   -10899.432   -10505.723    826.05795  0.066895471 
   70000    1307.4425    -10911.15   -10505.719    868.99541  0.069654942 
   71000    1302.7132   -10909.684   -10505.719    911.98609  0.073424825 
   72000    1329.0863   -10917.875   -10505.732    954.12842  0.066648374 
   73000    1306.5261   -10910.864   -10505.717    997.24536  0.069068983 
   74000    1296.1476   -10907.623   -10505.694    1041.9456   0.06867236 
   75000    1310.1534    -10911.98   -10505.708    1084.6205   0.07538588 
   76000    1290.1904   -10905.798   -10505.716    1125.6733  0.074410128 
   77000     1289.907    -10905.72   -10505.726     1168.088  0.075702077 
   78000    1316.2298   -10913.896    -10505.74    1210.1837  0.069264747 
   79000    1293.8378   -10906.938   -10505.726    1250.8445  0.067667276 
   80000    1270.0198   -10899.551   -10505.724     1292.193  0.071357756 
   81000    1298.6223   -10908.433   -10505.736    1336.0392    0.0736049 
   82000    1305.4521   -10910.554   -10505.739    1377.0426  0.076153919 
   83000    1280.1308   -10902.713   -10505.751    1419.7438  0.075074965 
   84000    1301.2323   -10909.279   -10505.774    1465.0117  0.065807016 
   85000     1317.576   -10914.348   -10505.774    1508.7791  0.070667979 
   86000    1324.1352   -10916.391   -10505.783    1550.3622   0.07164472 
   87000    1322.6514   -10915.938    -10505.79    1591.8787  0.063972691 
   88000     1300.622   -10909.058   -10505.741    1633.5544   0.06491983 
   89000    1325.4576   -10916.811   -10505.793     1675.828  0.062649415 
   90000    1283.9157   -10903.892   -10505.756    1718.8996  0.069837057 
   91000    1321.2639   -10915.489   -10505.772    1760.8481  0.067741827 
   92000    1305.1986   -10910.479   -10505.744    1804.7522  0.072063439 
   93000    1282.1794   -10903.367    -10505.77    1846.1334   0.06702289 
   94000    1297.8587   -10908.236   -10505.777    1890.3444   0.06986485 
   95000    1296.9798   -10907.943   -10505.756    1932.5741  0.073703069 
   96000    1311.7554   -10912.555   -10505.786    1975.4192  0.072242641 
   97000    1312.5578   -10912.807   -10505.789    2018.8774  0.071396089 
   98000    1302.9266   -10909.796   -10505.765    2059.5507  0.067490755 
   99000    1294.2313   -10907.116   -10505.781    2102.7677  0.066863656 
  100000    1313.3017   -10913.054   -10505.805    2141.3955  0.071300987 
  101000    1290.9663   -10906.114   -10505.792    2182.6197  0.074328654 
  102000    1288.2997   -10905.279   -10505.784    2226.1575  0.067414348 
  103000    1299.0486   -10908.628   -10505.799    2269.1436  0.064657818 
  104000    1302.8409   -10909.803   -10505.798    2312.7816  0.069066758 
  105000     1280.187   -10902.757   -10505.777    2355.2846   0.07092013 
  106000    1316.8011   -10914.115   -10505.782    2398.1441  0.061285188 
  107000    1296.3302   -10907.756    -10505.77    2441.7401  0.061983017 
  108000    1292.4447   -10906.562   -10505.781    2483.6848  0.066151103 
  109000    1292.3992   -10906.551   -10505.784    2525.1931   0.06692413 
  110000    1331.7575   -10918.775   -10505.804     2568.409  0.073721991 
  111000    1268.0645   -10899.013   -10505.792    2611.2195  0.073613612 
  112000    1291.6362   -10906.335   -10505.805    2652.3253  0.077231943 
  113000    1325.7779    -10916.94   -10505.823    2692.6072  0.078766233 
  114000    1302.1871   -10909.609   -10505.808    2735.1414  0.072380462 
  115000    1275.2378   -10901.237   -10505.792    2777.7724  0.068484613 
  116000    1279.5103   -10902.582   -10505.812    2820.9507  0.074802358 
  117000    1308.5933    -10911.61   -10505.822    2861.7678   0.07688297 
  118000    1297.2705   -10908.092   -10505.815    2905.7446  0.066896826 
  119000    1295.5298   -10907.517   -10505.779    2950.2393  0.063565875 
  120000    1311.3554   -10912.467   -10505.822    2994.7898  0.061291622 
  121000    1295.2723   -10907.471   -10505.813    3039.2605  0.063974926 
  122000    1284.1643   -10904.014   -10505.801    3081.7125  0.065454969 
  123000    1312.6607    -10912.86   -10505.811    3125.2757  0.065158916 
  124000    1291.4771   -10906.299   -10505.818    3167.9794  0.061508235 
  125000    1290.3177   -10905.952   -10505.831     3209.832  0.063084379 
  126000    1326.0959   -10917.043   -10505.827    3254.4801  0.066536298 
  127000    1286.2855   -10904.702   -10505.831    3296.2747  0.065128399 
  128000    1311.8907   -10912.659   -10505.848    3339.8018  0.065293634 
  129000    1312.4588    -10912.82   -10505.833    3383.1223  0.067694953 
  130000    1275.1367   -10901.233    -10505.82    3426.3866  0.068919076 
  131000    1294.7386   -10907.334   -10505.842    3469.7019  0.066776978 
  132000    1319.9245   -10915.146   -10505.844    3511.8967  0.072123025 
  133000    1295.7307    -10907.63    -10505.83    3550.3916  0.071548755 
  134000    1302.9139   -10909.865   -10505.838    3591.7568     0.070768 
  135000    1298.0955   -10908.361   -10505.828    3633.9081  0.072375046 
  136000    1323.4382   -10916.227   -10505.835    3674.6085  0.070713461 
  137000    1255.6425   -10895.198    -10505.83    3716.0017  0.069361885 
  138000    1273.2076   -10900.647   -10505.832    3759.5125  0.063218583 
  139000    1298.9771   -10908.666    -10505.86    3803.6384  0.067823955 
  140000    1297.6466   -10908.244    -10505.85    3847.1335  0.067617244 
  141000    1290.7555   -10906.078   -10505.821    3890.8317  0.063909138 
  142000    1317.3985   -10914.362   -10505.844    3931.9805  0.066095589 
  143000    1310.7294   -10912.298   -10505.847    3972.6226  0.070716332 
  144000    1282.9355   -10903.671   -10505.839     4012.381  0.071921226 
  145000     1308.647   -10911.641   -10505.836    4055.5326  0.070322983 
  146000    1305.6828   -10910.715   -10505.829     4097.935  0.068336091 
  147000    1305.2734   -10910.612   -10505.853    4139.2514  0.063191088 
  148000    1311.6262   -10912.596   -10505.867    4182.1777  0.068764348 
  149000    1311.9566   -10912.684   -10505.852    4224.6076  0.065041411 
  150000    1311.8882   -10912.654   -10505.844    4268.1359  0.066464451 
  151000    1277.0989   -10901.855   -10505.833    4312.3359  0.062311157 
  152000    1301.1708   -10909.329   -10505.842     4354.751  0.065929807 
  153000    1310.9851   -10912.376   -10505.846    4399.1429  0.064221158 
  154000    1304.4473   -10910.362    -10505.86    4442.4246  0.063387976 
  155000    1302.3106   -10909.708   -10505.868    4486.5771  0.066808485 
  156000    1292.2382    -10906.56   -10505.843    4529.7401  0.064036306 
  157000     1299.477   -10908.807   -10505.845    4571.2303  0.069953877 
  158000    1305.2861   -10910.615   -10505.852    4613.8842  0.077475835 
  159000     1312.364   -10912.817    -10505.86    4657.3968  0.075273224 
  160000    1298.3197   -10908.469   -10505.866    4697.6742  0.077928721 
  161000    1293.1635   -10906.847   -10505.843    4740.6423  0.072978334 
  162000    1310.2245   -10912.145    -10505.85    4784.6452  0.069742617 
  163000    1301.4604   -10909.437    -10505.86    4827.5494  0.070233618 
  164000    1281.4831   -10903.245   -10505.863     4868.187   0.06725638 
  165000    1296.3994    -10907.87   -10505.863    4909.7636  0.069493386 
  166000    1284.7256   -10904.246   -10505.859    4952.2765  0.070562229 
  167000    1284.6005   -10904.215   -10505.867    4998.1894  0.069540738 
  168000     1277.146   -10901.903   -10505.867    5042.1604  0.072196757 
  169000    1275.9592   -10901.492   -10505.823    5083.7958  0.069268502 
  170000    1288.6024   -10905.437   -10505.847    5130.6955  0.063288721 
  171000    1277.0095    -10901.84   -10505.845    5174.8512  0.066869793 
  172000    1282.8258   -10903.639   -10505.841    5217.3287  0.068807008 
  173000    1311.6929   -10912.619    -10505.87    5259.3548  0.070023047 
  174000    1296.1898   -10907.805   -10505.863    5303.1372  0.062062402 
  175000    1279.1692   -10902.512   -10505.848    5344.9272  0.068616352 
  176000    1269.0764   -10899.391   -10505.856    5388.2983  0.070670085 
  177000    1284.3154   -10904.122   -10505.862    5430.1573  0.072260766 
  178000    1275.0552   -10901.269    -10505.88    5471.4589  0.070172855 
  179000    1269.4735   -10899.524   -10505.867    5513.1835  0.070026729 
  180000    1296.5611   -10907.918   -10505.861    5555.4078  0.070724853 
  181000    1300.8716   -10909.274   -10505.881    5594.9247  0.071355341 
  182000    1279.5435   -10902.671   -10505.891    5637.0885  0.067280165 
  183000    1321.3458   -10915.639   -10505.896    5681.0857  0.064976415 
  184000    1299.8563   -10908.994   -10505.915    5726.1257  0.062959762 
  185000    1314.2771   -10913.451     -10505.9    5771.1915  0.070272465 
  186000    1286.4854   -10904.836   -10505.903    5814.5578  0.065534598 
  187000    1316.6357   -10914.202    -10505.92    5857.1898   0.06818348 
  188000    1287.8266    -10905.23   -10505.882    5901.8996  0.063347606 
  189000    1298.4578   -10908.547   -10505.902    5943.3267  0.071990243 
  190000    1307.3855   -10911.342   -10505.928    5985.8565  0.065036098 
  191000    1297.6883   -10908.321   -10505.915    6028.5993  0.066074829 
  192000    1318.0461   -10914.617   -10505.898    6071.3473  0.065541964 
  193000    1312.3906    -10912.88   -10505.914    6113.0507  0.069159191 
  194000    1263.1653   -10897.604   -10505.903    6156.6357  0.071402105 
  195000    1303.4491   -10910.101   -10505.907    6200.3704  0.066745596 
  196000    1293.8586   -10907.135   -10505.916    6242.3247  0.070684688 
  197000    1306.6071   -10911.075   -10505.903    6284.0167  0.069766988 
  198000    1285.3041   -10904.475   -10505.908    6322.9965  0.075352114 
  199000    1320.2904   -10915.321   -10505.906    6364.3339  0.068265474 
  200000    1310.3582   -10912.242   -10505.907    6404.3213  0.068366732 
  201000    1286.5393   -10904.835   -10505.885    6446.2591  0.067232707 
  202000    1316.0661   -10914.003   -10505.897    6486.4027  0.068692572 
  203000    1280.2116   -10902.891   -10505.903    6532.5685   0.06389684 
  204000    1306.4523   -10911.031   -10505.907    6574.7093  0.057581419 
  205000    1279.5888    -10902.69   -10505.896    6618.3807  0.065989105 
  206000    1289.7246   -10905.841   -10505.904    6661.1794  0.066182898 
  207000    1296.0986    -10907.81   -10505.896     6704.666  0.070131787 
  208000    1301.3532   -10909.461   -10505.918    6747.1908   0.06668998 
  209000    1306.6159   -10911.086   -10505.911    6790.3205  0.064757903 
  210000    1282.7697   -10903.668   -10505.887    6833.4284  0.065814636 
  211000    1298.9798    -10908.71   -10505.903    6875.1092  0.075685728 
  212000    1323.0221   -10916.185   -10505.922    6914.7986  0.064668375 
  213000    1286.2733   -10904.761   -10505.894     6956.007  0.066917538 
  214000    1297.4797   -10908.254   -10505.912    6999.8196  0.062772515 
  215000    1281.0141    -10903.16   -10505.924    7042.3007  0.068071579 
  216000    1327.3802   -10917.535   -10505.921    7084.6942  0.068511252 
  217000    1292.2408    -10906.61   -10505.893    7126.8812  0.068047037 
  218000     1304.941   -10910.558   -10505.902    7166.9699  0.068508658 
  219000    1305.9922   -10910.882     -10505.9    7211.1831  0.061668455 
  220000    1298.2997   -10908.499   -10505.903    7253.0317  0.071704602 
  221000    1291.2621     -10906.3   -10505.886    7293.7228  0.071205013 
  222000    1279.4312   -10902.636    -10505.89    7336.6406   0.06664067 
  223000    1270.4618   -10899.841   -10505.877    7379.5698  0.064020545 
  224000    1287.6489   -10905.166   -10505.872    7421.7289  0.068021706 
  225000    1325.9437   -10917.053   -10505.884    7466.0139  0.070743506 
  226000    1285.3993   -10904.482   -10505.886    7508.0659  0.069503899 
  227000    1288.1171   -10905.307   -10505.868    7550.8455  0.074805238 
  228000    1291.2194   -10906.298   -10505.897    7592.5954  0.069273937 
  229000    1281.6122     -10903.3   -10505.878    7636.7735  0.060913331 
  230000    1311.5095   -10912.603    -10505.91     7680.825  0.064515594 
  231000    1299.4874    -10908.88   -10505.915    7722.9116  0.068235664 
  232000    1284.4094   -10904.176   -10505.887    7765.8797  0.064745194 
  233000    1282.8299    -10903.69   -10505.891    7807.0008   0.06702998 
  234000     1339.852   -10921.396   -10505.915    7848.1772  0.069793051 
  235000    1323.1534   -10916.227   -10505.923    7891.8897  0.065553329 
  236000    1313.8012   -10913.286   -10505.883    7933.7159  0.063750211 
  237000     1323.925   -10916.452    -10505.91     7977.189  0.065246828 
  238000    1315.1866   -10913.751   -10505.918    8020.0436  0.069475314 
  239000    1284.4304   -10904.203   -10505.908     8061.793  0.068196896 
  240000    1280.4036   -10902.944   -10505.897    8103.2565  0.066237695 
  241000     1300.515   -10909.185   -10505.901    8144.3663   0.06683283 
  242000    1303.3329   -10910.068   -10505.911    8188.5862  0.060774976 
  243000    1272.5128   -10900.513   -10505.913    8232.3002  0.062312589 
  244000    1293.2683   -10906.952   -10505.916    8277.7175   0.05886955 
  245000    1337.8031   -10920.757   -10505.911    8318.2192  0.060092546 
  246000    1295.7879   -10907.733   -10505.916    8358.6223  0.067393721 
  247000    1300.5698   -10909.195   -10505.895    8400.7196  0.076619165 
  248000    1264.5082   -10898.025   -10505.908    8444.1293  0.074019652 
  249000    1287.2279   -10905.069   -10505.906    8486.1049  0.067048823 
  250000    1310.8676   -10912.403    -10505.91    8531.3054  0.067613783 
Loop time of 55485.1 on 1 procs for 200000 steps with 2400 atoms

Performance: 0.311 ns/day, 77.063 hours/ns, 3.605 timesteps/s
94.9% CPU use with 1 MPI tasks x 1 OpenMP threads

MPI task timing breakdown:
Section |  min time  |  avg time  |  max time  |%varavg| %total
---------------------------------------------------------------
Pair    | 55322      | 55322      | 55322      |   0.0 | 99.71
Neigh   | 135.35     | 135.35     | 135.35     |   0.0 |  0.24
Comm    | 13.281     | 13.281     | 13.281     |   0.0 |  0.02
Output  | 0.0062898  | 0.0062898  | 0.0062898  |   0.0 |  0.00
Modify  | 10.709     | 10.709     | 10.709     |   0.0 |  0.02
Other   |            | 4.135      |            |       |  0.01

Nlocal:        2400.00 ave        2400 max        2400 min
Histogram: 1 0 0 0 0 0 0 0 0 0
Nghost:        5060.00 ave        5060 max        5060 min
Histogram: 1 0 0 0 0 0 0 0 0 0
Neighs:         0.00000 ave           0 max           0 min
Histogram: 1 0 0 0 0 0 0 0 0 0
FullNghs:      264092.0 ave      264092 max      264092 min
Histogram: 1 0 0 0 0 0 0 0 0 0

Total # of neighbors = 264092
Ave neighs/atom = 110.03833
Neighbor list builds = 9633
Dangerous builds = 0

#------------------------------------------
# thermal conductivity calculation
# reset fix thermal/conductivity to zero energy accumulation
fix             3 all thermal/conductivity 10 z 20

variable start_time equal time
variable kappa equal (f_3/(time-${start_time})/(lx*ly)/2.0)*(lz/2.0)/f_ave
variable kappa equal (f_3/(time-250)/(lx*ly)/2.0)*(lz/2.0)/f_ave

fix             ave all ave/time 1 1 1000 v_tdiff ave running
thermo_style    custom step temp epair etotal f_3 v_tdiff f_ave
# thermo_modify   colname f_3 E_delta colname v_tdiff dTemp_step colname f_ave dTemp

run 200000
Per MPI rank memory allocation (min/avg/max) = 4.497 | 4.497 | 4.497 Mbytes
Step Temp E_pair TotEng f_3 v_tdiff f_ave 
  250000    1310.8676   -10912.411   -10505.918            0  0.067613783  0.067613783 
  251000    1327.2419   -10917.489   -10505.918    41.977684   0.07629638  0.071955082 
  252000    1275.2828   -10901.363   -10505.904    85.983839  0.067081151  0.070330438 
  253000    1304.3318   -10910.378   -10505.911    127.37054  0.062683945  0.068418815 
  254000    1289.8789   -10905.914   -10505.929    171.80325  0.070748722  0.068884796 
  255000    1300.7785    -10909.31   -10505.945    215.73546  0.074099862  0.069753974 
  256000     1312.364   -10912.885   -10505.927    255.52983  0.068064105  0.069512564 
  257000    1290.6212   -10906.117   -10505.902    298.01939  0.071698348  0.069785787 
  258000    1274.4629   -10901.143   -10505.938    341.43473  0.070485402  0.069863522 
  259000    1299.6302   -10908.922   -10505.913    382.29353  0.066969203   0.06957409 
  260000    1308.1164    -10911.56   -10505.919    426.22335  0.069081828  0.069529339 
  261000    1288.1752   -10905.396   -10505.939    470.99342  0.064736038  0.069129897 
  262000    1304.8368   -10910.543   -10505.919    512.75396  0.062885812  0.068649583 
  263000    1273.6568    -10900.86   -10505.906    555.31006  0.061626942  0.068147966 
  264000    1309.9562   -10912.128   -10505.917    598.38777  0.055459492  0.067302067 
  265000    1296.6186   -10907.965    -10505.89    641.90594  0.069654247  0.067449079 
  266000    1311.7881   -10912.682   -10505.903    683.88137  0.065288614  0.067321993 
  267000    1293.7095   -10907.089   -10505.916    725.82145  0.067058084  0.067307331 
  268000    1303.2976   -10910.049   -10505.903    767.03528  0.070336061  0.067466738 
  269000    1295.0877   -10907.505   -10505.905    809.67414  0.065611846  0.067373993 
  270000     1285.128     -10904.4   -10505.889    853.22209  0.069352309  0.067468199 
  271000    1314.5361   -10913.536   -10505.905    896.36575  0.065527441  0.067379982 
  272000    1291.3425    -10906.35   -10505.911    939.81421  0.065376894  0.067292892 
  273000    1291.2988   -10906.346    -10505.92    983.52233  0.067825628  0.067315089 
  274000    1288.8126   -10905.551   -10505.896    1025.5946  0.066539823  0.067284078 
  275000    1283.4492    -10903.91   -10505.919    1066.9995  0.067533876  0.067293686 
  276000    1312.0401   -10912.771   -10505.914    1107.1173  0.072520483  0.067487271 
  277000    1287.7278   -10905.243   -10505.925    1151.6159  0.068877096  0.067536908 
  278000    1302.4345   -10909.803   -10505.924    1194.0042  0.069726349  0.067612406 
  279000    1289.4695   -10905.754   -10505.896    1235.0002  0.069192537  0.067665077 
  280000    1282.7048   -10903.684   -10505.923    1275.1844  0.071406885   0.06778578 
  281000    1309.6903    -10912.05   -10505.921    1318.3581  0.064285785  0.067676405 
  282000    1292.9984   -10906.865   -10505.913    1359.8586  0.066353954  0.067636331 
  283000    1288.8671   -10905.578   -10505.907    1402.2406  0.068775299   0.06766983 
  284000    1255.6469   -10895.259   -10505.889    1444.0805  0.068304341  0.067687959 
  285000    1266.5183   -10898.642   -10505.901    1486.7014  0.077254632    0.0679537 
  286000     1310.271   -10912.218   -10505.909     1527.475  0.063308032  0.067828141 
  287000    1295.0566     -10907.5   -10505.909    1571.3147  0.066773312  0.067800383 
  288000    1280.9512   -10903.132   -10505.915    1615.4252  0.060511341  0.067613484 
  289000    1288.0151   -10905.336   -10505.929    1660.9187  0.063608604  0.067513362 
  290000    1279.7766   -10902.764   -10505.911    1702.8906  0.068772608  0.067544075 
  291000    1348.9829   -10924.254   -10505.941     1743.699   0.06824031  0.067560652 
  292000    1289.3716   -10905.776   -10505.949    1788.0912  0.060546529  0.067397533 
  293000    1284.4597   -10904.228   -10505.923    1831.4697  0.067000111  0.067388501 
  294000    1294.5752   -10907.388   -10505.946    1876.6781   0.06514359  0.067338614 
  295000    1322.0396   -10915.926   -10505.968    1919.5522   0.07105451  0.067419394 
  296000    1328.1857    -10917.81   -10505.946    1964.7757  0.068493525  0.067442248 
  297000    1322.2413   -10915.965   -10505.944    2008.7595  0.072868277  0.067555291 
  298000    1292.7801   -10906.828   -10505.943    2052.3142  0.071246995  0.067630631 
  299000    1263.2036   -10897.648   -10505.935    2096.5945  0.062573378  0.067529486 
  300000     1309.115   -10911.899   -10505.949    2140.7975  0.070629602  0.067590273 
  301000    1317.5144   -10914.513   -10505.958    2184.4364  0.071183605  0.067659376 
  302000    1322.1593   -10915.962   -10505.967    2226.9037  0.069956318  0.067702714 
  303000    1313.0349   -10913.124   -10505.958    2271.4584  0.065524715  0.067662381 
  304000    1295.0857   -10907.567   -10505.968    2314.8632  0.067279403  0.067655418 
  305000     1297.814   -10908.409   -10505.963    2358.5697  0.063651351  0.067583916 
  306000    1318.6991   -10914.892   -10505.969    2401.2435  0.061677816  0.067480301 
  307000    1295.8995   -10907.811   -10505.958    2443.5709  0.065809844    0.0674515 
  308000     1293.474   -10907.055   -10505.955     2485.591  0.070401211  0.067501495 
  309000    1293.3797   -10907.021   -10505.951    2527.3707   0.06341081  0.067433317 
  310000    1298.9285   -10908.755   -10505.964    2570.8363  0.060530884  0.067320162 
  311000     1267.731   -10899.077    -10505.96    2612.4838  0.068560739  0.067340171 
  312000    1278.3915   -10902.382   -10505.959     2653.123  0.069664643  0.067377068 
  313000    1294.2058   -10907.282   -10505.955    2694.6898  0.071205335  0.067436884 
  314000    1295.6399   -10907.745   -10505.974    2736.0135  0.061823303  0.067350522 
  315000    1301.7863   -10909.657    -10505.98     2778.518  0.069099917  0.067377027 
  316000    1250.4833   -10893.718   -10505.949     2819.514  0.068012776  0.067386516 
  317000    1288.5166    -10905.54   -10505.977    2862.4318  0.064081561  0.067337914 
  318000    1302.9533    -10910.01    -10505.97     2905.419  0.058269881  0.067206493 
  319000    1301.1971    -10909.49   -10505.995    2947.6708  0.063142706  0.067148439 
  320000    1302.1514   -10909.782   -10505.991    2992.1633  0.070641543  0.067197638 
  321000    1285.2073   -10904.518   -10505.981    3032.7788  0.071111757  0.067252001 
  322000     1280.817   -10903.148   -10505.973    3075.1046  0.067135501  0.067250405 
  323000    1299.4829   -10908.932   -10505.968    3118.1292  0.070864671  0.067299246 
  324000    1301.2843   -10909.498   -10505.976      3162.27  0.069725792    0.0673316 
  325000     1288.132    -10905.43   -10505.986    3206.5237  0.071902494  0.067391743 
  326000    1258.7249   -10896.316   -10505.992    3248.3021  0.068494526  0.067406065 
  327000    1303.1073   -10910.069   -10505.982    3290.1098  0.066459787  0.067393933 
  328000    1282.3065   -10903.626   -10505.989    3333.4958  0.064004967  0.067351035 
  329000    1325.3809       -10917   -10506.006    3376.6154  0.065248139  0.067324749 
  330000    1295.2768   -10907.675   -10506.016    3418.7058  0.063353118  0.067275716 
  331000    1295.1657   -10907.624       -10506    3460.5364  0.069653608  0.067304715 
  332000    1268.7701    -10899.44   -10506.001    3503.6634  0.071457407  0.067354748 
  333000    1285.2361   -10904.536   -10505.991    3546.1384  0.065984114  0.067338431 
  334000    1279.9589   -10902.895   -10505.986    3589.0513  0.061809289  0.067273382 
  335000    1284.6269   -10904.354   -10505.998    3635.7721  0.070139696  0.067306711 
  336000    1247.8156   -10892.923   -10505.981    3677.3451  0.059935882  0.067221989 
  337000    1274.3631   -10901.172   -10505.998    3721.0965  0.066062124  0.067208809 
  338000    1312.7925   -10913.092   -10506.001    3763.8422  0.065173128  0.067185936 
  339000    1311.5441   -10912.711   -10506.008    3807.2521  0.067422246  0.067188561 
  340000      1330.59   -10918.605   -10505.996    3848.2798  0.068022084  0.067197721 
  341000    1298.8969   -10908.786   -10506.005    3889.8695  0.064023767  0.067163222 
  342000     1305.102   -10910.721   -10506.015    3932.4695  0.059062324  0.067076115 
  343000    1308.6076   -10911.798   -10506.005    3974.1549  0.071783263  0.067126191 
  344000    1303.4851   -10910.192   -10505.988    4016.3952  0.059999783  0.067051176 
  345000    1316.8745    -10914.37   -10506.014    4060.6057  0.066087272  0.067041136 
  346000    1317.0799   -10914.452   -10506.032    4102.8451  0.070296474  0.067074696 
  347000    1282.3358   -10903.638   -10505.992    4144.8341  0.067259721  0.067076584 
  348000     1305.597   -10910.873   -10506.014    4187.7083  0.058798334  0.066992965 
  349000    1312.9892   -10913.148   -10505.997    4232.4944  0.059023993  0.066913275 
  350000    1312.9266   -10913.144   -10506.011    4276.5466  0.066330152  0.066907502 
  351000    1305.3757   -10910.798   -10506.007    4317.7259  0.063478695  0.066873886 
  352000    1304.6357   -10910.576   -10506.015    4360.2318  0.063156424  0.066837794 
  353000     1293.852   -10907.216   -10505.999    4402.5406  0.070509316  0.066873097 
  354000    1313.4004   -10913.267   -10505.988    4445.6819  0.066314672  0.066867779 
  355000    1283.2453   -10903.935   -10506.006    4487.2115  0.068723904   0.06688529 
  356000     1313.436   -10913.323   -10506.033    4531.0476  0.063326469   0.06685203 
  357000    1307.8597   -10911.587   -10506.026    4572.2119  0.064776345   0.06683281 
  358000    1314.5356   -10913.657   -10506.026    4614.4466  0.074114062  0.066899611 
  359000    1271.9904   -10900.448    -10506.01    4657.0498  0.073201201  0.066956898 
  360000    1271.1875   -10900.206   -10506.017    4697.3942  0.068313121  0.066969116 
  361000    1304.6746    -10910.58   -10506.007    4742.0288  0.073099827  0.067023855 
  362000    1302.7492   -10909.994   -10506.018    4785.5003  0.072523563  0.067072525 
  363000    1309.0016   -10911.941   -10506.026    4829.2933  0.068321425   0.06708348 
  364000    1309.2054   -10912.011   -10506.033    4870.8585  0.074099924  0.067144493 
  365000     1279.792   -10902.863   -10506.006    4912.1278  0.076371935  0.067224039 
  366000    1284.0077   -10904.139   -10505.974    4954.1548  0.068584989  0.067235672 
  367000    1326.8741   -10917.481   -10506.024    4996.7864  0.062996646  0.067199748 
  368000    1292.8477   -10906.914   -10506.008    5040.2918  0.067745548  0.067204334 
  369000    1330.8586   -10918.743    -10506.05    5081.9002  0.063068096  0.067169866 
  370000    1281.0113   -10903.249   -10506.014    5126.8545  0.067294297  0.067170894 
  371000    1274.8587    -10901.32   -10505.993    5169.1877  0.066633397  0.067166488 
  372000    1291.5656   -10906.511   -10506.003    5212.1365  0.067986628  0.067173156 
  373000    1337.4716   -10920.766   -10506.022    5256.3308  0.074214684  0.067229942 
  374000     1305.329   -10910.815   -10506.039    5299.0602  0.066710065  0.067225783 
  375000    1291.4536   -10906.495   -10506.022    5341.5752  0.068585026  0.067236571 
  376000    1289.8634   -10906.001   -10506.021    5383.4074  0.074585528  0.067294437 
  377000    1303.3437   -10910.196   -10506.036    5427.1488   0.07771847  0.067375875 
  378000    1294.8438   -10907.573   -10506.049    5467.2758  0.076306375  0.067445103 
  379000    1264.4674   -10898.137   -10506.032    5507.6764  0.073990885  0.067495455 
  380000    1299.8683    -10909.13   -10506.047    5550.9127   0.06871783  0.067504787 
  381000    1279.6889   -10902.875    -10506.05    5593.1876  0.069435963  0.067519417 
  382000    1293.4793   -10907.119   -10506.018    5636.4922    0.0650717  0.067501013 
  383000     1283.661   -10904.074   -10506.017    5679.4769  0.066019762  0.067489959 
  384000    1317.9778   -10914.759    -10506.06    5722.5181  0.072289571  0.067525511 
  385000    1297.8282   -10908.495   -10506.045    5765.4897  0.065880752  0.067513418 
  386000    1289.1656   -10905.801   -10506.037    5810.5131   0.06869144  0.067522016 
  387000    1280.6037   -10903.162   -10506.053    5854.5675  0.058662451  0.067457817 
  388000    1308.4965   -10911.815   -10506.057    5896.3407  0.069261762  0.067470795 
  389000    1300.5965   -10909.389    -10506.08    5939.0412   0.06119961     0.067426 
  390000    1315.4954   -10913.979    -10506.05    5981.8082  0.067984255   0.06742996 
  391000    1302.4665   -10909.977   -10506.088     6021.935  0.073757609  0.067474521 
  392000    1307.0993   -10911.385    -10506.06    6064.1245  0.071323163  0.067501434 
  393000    1298.7568   -10908.811   -10506.072    6108.1445  0.066636541  0.067495428 
  394000    1299.8202   -10909.122   -10506.054    6150.5987  0.072648741  0.067530968 
  395000    1292.4831   -10906.857   -10506.065    6193.9928  0.070990931  0.067554666 
  396000    1318.8305   -10915.042   -10506.079    6238.1441   0.07358786  0.067595709 
  397000     1302.837   -10910.088   -10506.085    6280.6052  0.072510224  0.067628915 
  398000    1285.2536   -10904.596   -10506.045    6320.0865  0.074695181  0.067676339 
  399000    1286.5966   -10905.063   -10506.096    6363.6218  0.067112431   0.06767258 
  400000    1301.3515   -10909.612    -10506.07    6404.7444  0.068856565  0.067680421 
  401000    1304.0687    -10910.48   -10506.095    6445.6836  0.067707149  0.067680597 
  402000    1296.8566   -10908.216   -10506.067    6488.8027  0.059006788  0.067623905 
  403000    1321.0713   -10915.731   -10506.074     6531.138  0.067568926  0.067623548 
  404000    1292.4971   -10906.876   -10506.079    6574.2131  0.069820259  0.067637721 
  405000    1308.0667   -10911.715    -10506.09    6616.7369  0.077079724  0.067698246 
  406000    1268.8091   -10899.521    -10506.07    6658.4728  0.074246282  0.067739953 
  407000      1308.21   -10911.749    -10506.08    6700.8817  0.070934994  0.067760175 
  408000    1332.2838   -10919.205    -10506.07    6746.2564  0.065716876  0.067747324 
  409000    1284.3843   -10904.336   -10506.055    6790.6839  0.062031752  0.067711602 
  410000    1284.8336   -10904.475   -10506.054    6834.1115  0.069692876  0.067723908 
  411000     1295.834   -10907.896   -10506.064    6877.7217  0.075625765  0.067772685 
  412000    1285.3276   -10904.645   -10506.071    6919.7678  0.072183905  0.067799748 
  413000    1308.6007    -10911.87   -10506.079    6960.9884  0.065061439  0.067783051 
  414000    1286.9787   -10905.142   -10506.056    7001.9602  0.069673252  0.067794506 
  415000    1277.1606   -10902.104   -10506.062      7042.13  0.074167463  0.067832898 
  416000    1295.9106   -10907.906   -10506.051     7083.598  0.069331876  0.067841874 
  417000    1305.0761   -10910.753   -10506.055    7125.1296  0.066720726    0.0678352 
  418000    1310.0465   -10912.289    -10506.05    7170.8482  0.071145548  0.067854788 
  419000    1303.2005   -10910.151   -10506.035    7212.0262   0.07173962   0.06787764 
  420000    1300.7915   -10909.436   -10506.067    7256.1124  0.069048396  0.067884486 
  421000    1313.9926   -10913.522    -10506.06    7297.9545  0.074612527  0.067923603 
  422000    1317.2299   -10914.521   -10506.055    7340.8487  0.062785671  0.067893904 
  423000    1300.4546   -10909.346   -10506.081    7383.0123  0.073413882  0.067925628 
  424000    1286.0495   -10904.846   -10506.048    7427.8054  0.067162391  0.067921267 
  425000    1249.6536   -10893.563   -10506.052    7469.8438  0.070781649  0.067937519 
  426000    1308.4631    -10911.81   -10506.062    7511.1567   0.06850327  0.067940715 
  427000    1280.6224   -10903.144   -10506.029    7553.7564  0.075869251  0.067985257 
  428000    1270.0902   -10899.898    -10506.05    7594.9998  0.068969733  0.067990757 
  429000    1303.6915    -10910.31   -10506.041    7638.0814  0.071682601  0.068011267 
  430000    1283.2681   -10903.979   -10506.043    7679.8935  0.071183267  0.068028792 
  431000    1309.5166   -10912.138   -10506.063     7722.706  0.077002711    0.0680781 
  432000    1287.7154   -10905.355   -10506.041    7764.6534  0.066922935  0.068071787 
  433000    1302.1025   -10909.837   -10506.061    7809.7995  0.066128485  0.068061226 
  434000    1294.4515   -10907.453    -10506.05    7851.5236  0.066433296  0.068052426 
  435000    1259.7074   -10896.678   -10506.049    7891.3216  0.067121144  0.068047419 
  436000    1287.1049   -10905.135    -10506.01    7933.8644  0.068087142  0.068047632 
  437000    1290.2676    -10906.15   -10506.045    7975.0033   0.06865035  0.068050838 
  438000    1315.2152   -10913.872    -10506.03    8015.4153  0.071012691  0.068066509 
  439000     1302.605   -10909.959   -10506.028     8057.787  0.072747025  0.068091143 
  440000    1268.9508   -10899.516    -10506.02    8099.9443  0.066832449  0.068084553 
  441000    1305.0226   -10910.712   -10506.031    8142.9358  0.077431731  0.068133236 
  442000    1297.9012   -10908.492   -10506.019    8185.4931  0.071356513  0.068149937 
  443000     1330.743   -10918.688   -10506.031    8229.2099    0.0657241  0.068137433 
  444000     1321.705   -10915.896   -10506.041    8271.8249  0.064583726  0.068119209 
  445000    1278.6207   -10902.522   -10506.028    8312.1174  0.076963844  0.068164334 
  446000    1316.5652   -10914.301    -10506.04     8353.979  0.074752521  0.068197777 
  447000    1286.6925   -10905.029   -10506.032    8394.5787  0.072611673  0.068220069 
  448000    1289.2118   -10905.809    -10506.03    8438.0903  0.070647796  0.068232269 
  449000    1306.4523   -10911.162   -10506.038    8480.0441  0.073693581  0.068259576 
  450000    1293.3467   -10907.097   -10506.036    8522.2163  0.074936181  0.068292793 
Loop time of 50866.7 on 1 procs for 200000 steps with 2400 atoms

Performance: 0.340 ns/day, 70.648 hours/ns, 3.932 timesteps/s
96.7% CPU use with 1 MPI tasks x 1 OpenMP threads

MPI task timing breakdown:
Section |  min time  |  avg time  |  max time  |%varavg| %total
---------------------------------------------------------------
Pair    | 50704      | 50704      | 50704      |   0.0 | 99.68
Neigh   | 135.18     | 135.18     | 135.18     |   0.0 |  0.27
Comm    | 13.019     | 13.019     | 13.019     |   0.0 |  0.03
Output  | 0.0055095  | 0.0055095  | 0.0055095  |   0.0 |  0.00
Modify  | 10.526     | 10.526     | 10.526     |   0.0 |  0.02
Other   |            | 3.987      |            |       |  0.01

Nlocal:        2400.00 ave        2400 max        2400 min
Histogram: 1 0 0 0 0 0 0 0 0 0
Nghost:        5099.00 ave        5099 max        5099 min
Histogram: 1 0 0 0 0 0 0 0 0 0
Neighs:         0.00000 ave           0 max           0 min
Histogram: 1 0 0 0 0 0 0 0 0 0
FullNghs:      264266.0 ave      264266 max      264266 min
Histogram: 1 0 0 0 0 0 0 0 0 0

Total # of neighbors = 264266
Ave neighs/atom = 110.11083
Neighbor list builds = 9634
Dangerous builds = 0
print           "Running average thermal conductivity: $(v_kappa:%.2f)"
Running average thermal conductivity: 9.54

# unfix NVT
# timestep .1
# fix NVT all nvt temp ${Tsim} ${Tsim} $(10.0*dt)
# run 100
write_data	Therm_${Tsim}_restartpoint.lammps
write_data	Therm_1300_restartpoint.lammps
System init for write_data ...

Total wall time: 33:35:59
