LAMMPS data file via write_data, version 29 Sep 2021, timestep = 450000

2400 atoms
3 atom types

0 21.80156520444443 xlo xhi
0 32.702347806666644 ylo yhi
0 43.60313040888886 zlo zhi

Masses

1 18.998403163
2 6.938
3 22.989769

Atoms # atomic

1346 1 1.3687157603126012 3.144327291090498 3.5301256887104757 4 2 0
2056 2 3.0678584814337317 0.9957771287595697 0.5751278591310003 1 0 -1
1460 2 0.49069159870479484 2.0761708344238023 2.391520058722696 0 -1 0
931 1 1.300567621402581 5.537087824026906 1.247737185340423 1 -2 0
1610 1 1.6788953541266693 1.8209575684711137 1.0357061472781042 0 0 1
1429 1 4.60222756595398 1.8918743678039511 1.2899507918656021 0 0 1
586 2 5.292077693615119 4.577243983936157 1.1474132022260444 1 1 -2
396 3 5.435968937765441 2.7135471915625122 42.88747570428694 1 -1 0
1846 1 6.640072758567785 3.864425320764338 0.716122059387043 -1 0 1
1072 2 6.7934614391429005 3.757796454697424 2.8934581402677897 -1 0 0
37 1 7.4057817437111035 1.8769373187219898 2.924085709323293 0 2 0
1677 2 7.416376824622844 2.1995882912615783 0.768829437499205 2 2 1
1937 1 9.244953818567364 2.806431720944047 0.3843792824487136 2 -1 1
1258 2 9.633195424454644 0.8764724308304433 2.0274564178076946 -2 1 0
1603 1 9.637656795158438 1.107516342012926 4.023450759653106 1 1 1
934 1 12.592547816762034 2.5111848701042665 1.93911253308167 -1 2 0
2399 3 13.128006707932347 1.1243453750773302 3.516874670495682 1 0 0
1212 1 15.271556682277764 3.0846409984217695 4.055805758760562 -1 2 1
2203 1 15.613472156283416 1.494706506885057 1.065593220400826 1 0 2
966 2 16.22830181485437 2.093933774915211 2.9246713132891915 2 0 0
107 1 17.969048641356206 2.19870655296468 2.9024234641514073 3 1 -1
640 1 18.871411998764113 2.17571607714202 43.07126992977105 1 0 0
1144 1 20.967068735890916 1.219569721243977 1.543359643150189 1 1 -1
2100 3 18.988010439928008 0.30546592043702375 1.122636145524211 -1 1 1
666 2 20.514001766668493 2.8482588306702037 0.3660281926573183 -2 0 0
1495 3 1.6153405003556833 5.214936666594839 3.3433555021410726 0 0 0
1627 1 2.0752878830989827 6.9322973999624695 4.645948514158415 0 1 0
1165 2 7.710262941467825 6.170136217172718 2.004197943093578 0 1 0
1222 1 5.878105891670976 6.265796022573021 1.8445209040701471 0 1 0
945 1 9.578337384830816 6.143602298653586 0.5662470577621053 0 1 0
460 2 5.496411194282651 7.511717489230872 0.34983654495785577 -1 1 -1
2374 2 9.995341986599248 4.53393819236833 0.8721966610677584 1 2 0
1924 1 8.301222935805932 5.035886131003403 3.1764359364115324 2 0 1
1449 1 10.985307359804663 4.879412892316758 2.3411634905035577 -2 -1 0
394 3 10.322664488195356 6.919367945537686 2.754389212568645 -2 0 0
668 2 14.262737741531406 3.455139984017164 0.2158817316624777 -2 0 1
179 2 10.631472765899016 7.733285543675229 0.20068228736796775 2 2 0
2052 2 12.385594117619044 5.727885667283806 1.3673032807124186 -1 1 0
2271 2 14.981243282502893 4.974307742247419 3.50089940480257 -1 3 1
388 2 12.673865745558839 3.982268287242653 2.9999968645682213 0 -1 0
112 1 13.977863087489522 4.8365261888100815 2.0992481355080335 -1 1 0
1974 2 17.653046739417565 6.796679632372747 0.7875736421218553 0 -1 1
1817 1 16.855095207117916 5.312172612744656 2.140460198798759 -2 0 1
1615 1 17.809410392815423 6.94116949018667 5.027175746051006 1 0 0
2086 2 16.772441128218134 6.616855075370363 3.3537757603554414 0 -1 1
82 2 20.352348885488414 6.025404499049653 1.6634662597216172 0 2 -1
605 1 19.414335183655375 5.02720954115965 0.7391476096818166 -1 2 1
645 1 20.46867813843606 5.550856661976653 3.4366257471508104 -1 0 0
653 2 3.232798993967419 9.724486208898423 2.013879101072422 0 1 0
1334 1 2.7726250500914618 7.951641781704527 1.6205537283705946 1 -3 0
417 1 2.4834219066784167 11.317929360566433 0.008324814310679688 2 2 0
724 1 7.965327322387645 10.69855308773216 1.9987805120178417 -1 0 0
299 3 4.018453910265958 6.807322760039747 3.5975476476028283 -2 1 0
537 1 4.871937401018269 9.486827483335881 1.2259537167384573 0 0 0
169 2 6.00605346611653 10.623789762158337 2.0636463736017197 1 0 1
219 1 10.353532614352357 8.962156923515465 1.5973170111431567 2 0 0
471 2 7.8669031050646305 9.544723941221838 0.38670070327460226 0 0 -1
1301 1 10.272268432882159 9.670690301892028 4.299132739731272 1 1 0
2207 1 10.80912223418328 12.463942351952447 0.8368522681816083 1 0 1
1344 1 12.471833978474288 7.6073788716141 0.5064972706941632 -2 1 0
492 3 14.843262964156622 8.824981837507805 1.2710491619010034 2 -1 0
1364 2 12.017666417110966 9.41675099347562 0.6699479148322619 2 0 -1
1383 2 11.937321021145435 9.41897099630275 3.3767778429653275 1 0 0
503 1 12.403050518726454 7.355971871601554 3.5001598278023156 2 1 1
424 1 16.952106357181865 8.34282183105286 2.487457498215732 -1 1 -1
1181 2 18.475495964338325 9.237240656034425 1.2516520889138463 1 0 0
650 1 17.544076402027883 10.970152895145326 2.373434367796052 1 0 1
879 2 16.576166013190022 9.57910348741838 3.6462269753770893 1 0 1
2314 1 17.802027076372468 9.931390253732086 5.000783547622829 -1 1 1
1444 1 20.356229787939608 9.58610741288854 2.4151966709535477 -2 -1 1
793 3 0.5990866168154931 8.149933784077257 2.311974064193003 0 0 0
343 1 0.34790188800955996 7.350899875174589 42.97244277166833 2 -1 0
996 3 4.821995031268481 13.247355092802716 2.5961798799289393 1 -1 0
1942 1 1.8255606780263436 14.134217792113734 3.15771193442547 1 -1 1
131 1 4.06914921418786 13.607869813853274 42.65040239478465 0 -1 0
1753 2 0.2688350586372982 14.97073394963257 2.9745039653230942 1 1 0
717 1 6.116850569037975 14.842123132093045 2.678988149194126 1 0 1
1982 2 7.533340090384217 14.680177162647661 1.3837424232963655 -1 -1 1
2182 2 5.849613722215793 14.17572658852758 43.25406494483476 0 -2 -1
834 1 5.550041697127558 12.486955560688845 0.9747782560609758 -2 1 1
784 2 11.342479965765403 12.017595688142633 2.3249646158186112 3 -2 1
1584 2 9.79972066582095 14.319767210171184 2.8960932843369527 -2 1 0
2170 2 9.202343349983584 11.982538118178772 0.9280103475784394 0 1 2
1116 1 11.205531282267005 15.202084435007155 2.615170188008472 -3 1 1
515 1 8.402979481470016 13.485013094142017 2.344493968227021 1 -1 0
1621 1 13.062495473615188 10.031343474968523 2.038979902006768 -1 -1 0
496 3 12.183245902300314 13.817350621063946 4.179307271064028 -1 -1 0
2114 1 13.050449880169369 12.73340229370228 2.1850844738237774 0 0 1
230 1 15.235794923911309 12.002968971827801 4.167746677059148 0 0 0
1075 2 18.62284409373817 11.071624842017371 3.865145049166941 1 1 1
2139 1 18.322102265577577 12.962278484782594 4.574056176257396 1 0 1
2367 2 16.73976572776843 11.35613761841068 0.7596410726862716 0 1 1
1208 1 19.342501876973852 13.257203063649044 0.13871944911779976 -2 1 0
2031 1 21.71646950546437 12.674247895936643 2.4286587910404562 -2 -1 0
155 2 17.985797458041354 13.998852769707408 1.1119478965027716 -1 0 1
455 2 18.744368112979128 14.73775590122566 3.9928410169517874 -1 1 0
2351 2 1.7743881488684605 12.444717430932293 2.267928541410137 1 -1 -1
576 2 21.180150295880768 11.06430077214351 3.5382912281728087 -1 2 0
2161 2 1.9919037960662052 16.175723868138377 3.610920315100539 0 -1 2
96 3 2.539379488077502 15.28784928950303 0.7313267811097642 1 0 0
1145 1 1.133418992974518 17.737442586366274 2.886185907164469 0 0 1
2389 2 2.511005329024708 18.415098962550687 2.131217577803698 0 -1 2
1089 2 0.30350500592116664 17.567691870927604 1.1178884208127096 1 -2 1
193 3 1.331770882785286 20.813664690611862 4.4331682760364295 0 -1 0
1033 1 3.5820537826973804 16.212614722276204 2.6591178939199605 2 1 0
164 2 5.469869863938392 16.83403172103541 1.627949905619524 0 1 -1
355 2 7.95965396577393 14.063429219050196 41.26967987989377 1 0 0
100 3 11.130522012315177 17.04542308709299 1.599588540708904 2 1 0
345 1 8.938443201533252 16.016033525174628 1.073678923235471 1 -1 0
1154 2 8.453189395996452 17.384707951093905 0.25138815370280393 1 1 1
538 1 9.477519013127653 18.051098375981265 42.23456458187412 2 0 -2
1671 2 10.603227927253982 16.21361990159311 4.166182269958567 -1 0 1
722 1 13.28105002354739 17.640512630366047 2.7603575531336073 0 1 0
2155 2 13.223466269835109 14.783212306113189 1.7136822179769384 -3 1 2
2157 2 15.371920163539484 13.12619573375689 2.6730152789502526 0 0 1
483 2 14.376578267432162 16.776319063312013 3.91961261796693 -1 1 0
1622 1 18.572281908666206 17.461591221272553 42.93337108641509 0 1 -1
2013 1 14.423685085307204 14.823458967544695 3.661753366130546 -2 2 2
712 1 14.685971915552269 15.754038092085377 1.0737478744351334 -1 0 0
1839 1 18.320462708679376 15.526226264679533 2.252495992708384 0 0 1
1193 3 19.454283084262805 17.359536868615677 1.219861551802434 -1 0 0
545 1 0.29086729999034056 19.601494411606826 5.984812938507518 0 -1 0
743 1 2.9301251143907803 20.193643768788615 2.097780410994238 1 0 1
1595 3 0.9796061215159207 20.666121822541868 1.281713978373487 0 1 0
787 2 4.017012074752708 21.785250867120403 2.042716886290816 2 -1 0
1776 2 8.972015538097978 19.647334891772978 43.26896474724619 1 -1 -1
140 1 5.361204228136778 20.4238963629865 1.8028483686269945 1 -1 0
510 1 6.648654630815912 18.181649696680836 0.5925067105472894 1 0 -1
229 1 9.492964605985982 18.677284415589455 1.3894556317106894 1 1 1
2001 1 9.035346467235769 21.107253641579167 0.4265891811623694 0 -1 0
621 1 11.947539085053254 20.426459470572325 1.056586961834723 0 -1 1
87 2 10.328951409261983 20.515571065377994 1.6971530896048224 -1 1 0
803 1 16.48901824392969 23.348046978291634 2.1197261689593745 1 0 0
2258 2 13.791462037759958 20.1803100048274 0.9287218748879981 0 0 1
257 2 16.263039388735184 19.16891893301613 3.00265172408771 1 -1 0
939 1 16.573382622914373 17.920945395258542 1.0528895830747393 -1 -1 0
852 2 16.84166097525634 19.718246610658163 0.45771175403708075 0 1 0
46 1 17.880413132425343 20.54583124396854 1.8117424452500264 0 -1 2
223 1 15.638990352139642 17.986956531282807 4.074739592155345 1 0 1
1361 2 19.542233969728134 19.94468347867795 3.325649206149016 1 -2 -1
1516 1 21.104549318383434 18.5541718295944 0.28649176900826134 1 0 1
2111 1 21.231720287846688 20.809867955629407 2.6656482385416904 0 -1 0
511 1 0.05534053969124248 21.09665190282454 43.026681931552666 1 1 -1
286 2 21.03543950829082 23.628649276026444 0.9395896196901063 -1 1 0
2323 1 2.960809754494073 22.42182883232549 0.4398278087539806 0 2 0
2055 2 2.052623226228865 23.598824282020917 1.475907311786001 2 0 1
658 2 0.1642178520669374 25.675016673605807 2.404808482911443 0 -2 0
136 1 9.029954867307564 23.61730803465495 41.483758874522515 0 0 -1
1265 2 5.038919515433228 24.346951251780116 1.284952429339782 -1 -1 1
2042 1 3.6372327119335233 24.133947504241878 2.4474425399823097 1 0 1
1392 3 6.231827693051804 20.934476893900236 43.4634464936895 2 0 -1
921 1 6.2593177712964465 23.24963129298697 1.9457045045896253 -1 0 1
958 2 8.889371043346749 21.98160526168604 42.27905370496498 1 1 0
153 2 12.726820973707262 24.971838495873538 2.148157104597683 -1 0 0
648 1 10.251538605752923 21.98520719055191 3.030144761897898 1 -2 1
1831 1 13.95218566875774 23.428590230265 3.2332475440615314 -2 -1 0
2089 2 14.006277160742862 23.07652641209846 1.0358918934920007 0 0 0
277 2 14.009928212965852 25.07272904817808 4.657876033223789 -1 -1 1
1751 2 15.992547861686113 24.863464012337108 42.05527186720421 -1 0 1
1386 2 17.51727677240353 22.47367790204493 0.45846558432359125 2 0 -1
1835 1 14.381344854624677 24.763591491328384 0.693006204242189 -2 -1 0
1260 2 15.716725786131763 24.897738232486716 2.408138262743378 2 0 0
1092 3 15.418703983088387 21.964230057913493 3.9595709088727307 1 0 0
950 1 15.342217804466822 26.64149241101505 2.2670218290642885 1 0 0
1332 1 20.495886670147968 24.627172414251355 3.054134925850167 0 -1 0
2309 1 19.954853955405046 24.955749058077068 0.24719936610824833 -1 0 2
1522 1 19.126404052842368 23.008890720836316 1.3393677981690149 0 -2 0
890 2 18.874534626094796 24.892048110000392 1.9175453197873957 -1 1 1
795 3 19.911899114707357 20.452268000881013 0.2826177690967213 -2 0 2
2103 1 1.3102847454150595 25.795514795172156 1.2397563785991121 2 0 1
331 1 1.668013058350921 28.415968270043955 2.759902542656616 -1 0 0
2273 2 2.1695005036143282 28.05199025039785 0.6959808857240275 1 1 1
568 2 5.80847266598813 27.34202629007346 1.319279571124184 2 1 0
1467 2 7.567925228418959 24.742413462265766 1.25918380718931 0 0 1
1010 1 6.378253604988101 25.70040199536006 0.6404948979045485 1 0 0
2249 1 4.232869908931015 27.239898577252692 2.501932541388378 -1 0 1
287 2 3.1881304556598664 25.792694472368083 2.2828051006304575 1 0 0
1304 1 5.6241084885725865 28.133933405127554 43.34030388224625 -2 -1 -1
989 2 9.03214233506952 27.17664808738062 1.8641629315100738 0 0 0
1727 1 8.267455144884233 25.560909419030956 2.8200398432585283 -1 0 2
841 1 10.873506541426996 29.412785080942815 43.330312029824704 0 -1 -1
566 2 9.070815263018059 28.510429902053513 42.79506509648627 0 -1 -1
1506 1 11.290492422160282 26.075480608923453 1.4599659365507298 0 1 0
201 1 13.081369019991149 28.967469666001836 2.1644035741527548 -2 -1 0
679 2 11.979243773918 27.619801522459802 43.47834616843767 1 -1 -1
691 3 18.58108458731925 26.702877549322746 42.68355061010538 -2 1 0
2045 1 16.782229454114205 29.918611981547063 1.404338537653741 -2 0 1
1565 2 14.731119394944002 26.789929704294074 0.6094077964452904 -1 0 1
89 2 17.397435529751842 28.37162341472994 1.9479346172278338 -2 -1 1
2306 1 18.1182154221863 28.430962596306042 3.9931009126155503 -2 0 1
1875 2 17.396388764086986 30.027740085147318 3.797840741277485 2 -2 1
1250 1 20.949892132222473 27.539717224261796 2.550781137914847 0 -1 -1
933 1 19.385356634233144 28.80872722059396 0.3784717992034179 0 0 0
1085 2 20.399524055123017 27.49514972882557 0.7854424832619288 -1 0 0
1320 1 18.011099130852582 26.415911772178497 2.1923511026888325 1 -2 0
949 1 21.450113069236796 27.131467490355757 43.01143136733229 2 1 -1
2011 1 3.577012288973401 31.67404444524749 1.2375858371339157 -1 0 1
1638 1 1.590182595462962 32.15102652219899 3.4248921494778233 -1 -1 0
1962 2 1.9706916162296741 30.90131169123685 1.6429725948981608 0 0 1
903 1 0.23087323057926465 30.55715771335708 1.381584825676856 1 0 1
893 3 5.500008027820137 32.58148300517402 0.9741725125680084 1 -1 1
872 2 6.2030080247262385 29.626397481186356 0.42125397373018386 0 -1 0
1123 1 6.43048857792427 31.17735342546298 43.208971759872405 2 1 0
196 3 9.948382298334604 29.866225019423077 2.0501474632492918 0 -2 0
306 1 8.418590844913904 30.701573878887572 5.225639824368353 2 0 0
1132 1 9.540066731654923 31.786555088277655 1.3984785955076153 1 -1 1
1148 1 8.29830048581085 28.265182194531494 0.7068657331081655 3 0 0
373 2 7.889405444958056 32.057328769110875 43.07603937124552 2 0 -1
601 1 13.598191850904586 32.168275112191054 1.9585902283672652 -1 0 2
1993 3 13.227206764978344 30.39365449616839 0.10541358195212747 2 -1 1
298 3 15.840734399659034 31.962095726699825 1.3982292359491513 1 -1 0
54 2 13.067469094952568 30.655278316781192 3.199368452137612 0 -1 0
439 1 14.358977840380122 30.565243752840935 4.527558845978801 -3 0 0
940 1 17.01100340360864 32.13746278663153 3.160970027740561 -2 1 0
1785 2 13.982520439622983 1.0670563610339312 0.533702561260775 0 -1 1
598 3 20.811146260212343 29.723085123253377 3.1958427887318503 0 -1 0
161 2 21.715620244354728 32.43872453896382 2.499253609396495 1 0 1
1050 1 20.301328330705662 32.211363085875746 3.6881585961814443 0 0 0
765 2 15.726893414011323 31.71824829143497 5.016430527614506 -2 -3 0
904 1 3.7247524275345376 1.6819186230885266 5.0869607115575795 -1 0 0
924 1 5.043916751749713 2.942085773652915 7.328090172136001 -1 1 0
984 2 2.729534478210743 3.2116301907432905 5.717130394190922 1 0 0
910 1 1.169340095276611 1.9636490471331771 5.66220031484741 2 1 0
2178 2 4.452985760311344 2.0381689830318392 3.137528947778547 -2 0 0
1849 1 5.450452925852424 3.5983354627326363 3.548591134920543 -2 -1 0
2084 2 6.803775461318989 3.3338443281092203 6.346629628795004 -2 1 1
16 1 6.333194480008717 0.8313584908123289 5.821024620580108 1 0 1
1367 2 7.481449729517108 0.29819993936016936 7.12405558548479 2 2 0
616 1 9.268872715502429 3.161634852453549 5.919629386353775 -1 0 0
2075 2 10.764171983158365 2.0675717836023826 5.53167173692306 -3 0 1
1593 3 9.403696336505487 3.193186356820667 3.6144554651365266 1 0 1
2239 1 12.272249750571914 1.7097151385831852 6.271173712474825 0 1 0
1877 2 12.703517945703029 3.399398822770333 6.15881019644605 -1 -1 0
2094 3 18.634560307295004 0.8370891876759744 4.292918785897045 -1 1 -1
1375 2 15.01416247873857 2.1548742773554492 5.650606458962454 -1 1 0
1347 1 17.15311886843019 2.5131297899806415 5.969897070615722 -1 1 0
1650 1 14.524951917048114 2.996943189241253 7.05915205881848 1 1 -1
999 3 17.53843652161467 3.79206875998223 4.4046059850318695 -1 0 -1
1975 2 21.51935646497512 2.200746881266623 6.198116696108212 1 0 0
310 1 20.15747283753802 2.8218874503225617 5.333646191103963 -1 0 0
1468 2 18.814661561966954 2.0869192278107818 6.479711821558749 0 3 1
2372 2 1.3540615570774612 6.8793321012008555 6.260706588976872 2 3 1
613 1 2.4754886538669805 3.9269466735677847 7.90240562882754 0 1 0
1994 3 0.2493479857658673 4.510112792004034 4.821609262173717 2 -1 2
2320 1 3.2124660004090115 7.673570173161749 6.960051543987829 1 0 0
1960 2 4.250882923427444 6.334238307823363 6.645296414395709 -1 0 1
1881 2 7.5715633487523215 6.189341577092479 4.706690305867121 -1 -1 1
2379 2 4.898793749231928 3.9982424463449293 5.162939208597389 2 1 1
1240 1 6.74245490665363 4.971640796690662 6.2058442866381265 -1 1 1
436 1 3.5716081706051837 4.738795953096513 4.968258437094743 0 0 -1
1683 2 6.31331323727284 5.48588033552497 8.03197734365671 -1 0 0
1296 3 10.964517840496095 5.629353092246115 6.270757382994472 -1 0 1
412 1 7.962919322567961 8.136222508798648 2.5829163175552985 -3 0 0
2025 1 11.826354972109899 3.61967095729211 4.479278086649379 2 -1 1
1547 1 15.436718672831075 6.030095952195151 4.743458635951534 2 -1 0
577 2 13.397487625060268 7.405348430017365 4.911969092271604 0 -1 -1
1605 1 18.217841454629216 5.004028056642417 6.697829353056422 -2 1 0
894 3 16.029972157362106 9.302225863129285 6.54995335350238 1 -1 0
2216 1 21.248245081734424 5.80797184339632 6.295604503412216 -1 1 0
2164 2 16.71878709164787 6.042629393229612 6.337897091756188 0 1 0
674 2 19.733077617182794 4.658726980329538 7.683661567575111 -3 0 0
1588 2 2.85724482628309 9.317672997484323 5.033330349385624 0 0 0
850 1 4.500988790113612 9.098763415743946 4.254269672933718 0 0 0
81 2 4.2024665538444665 11.14368536858446 4.337323245651912 -2 1 -1
50 1 6.3389214050389855 11.131543366003198 3.8681573241499896 1 0 1
386 2 6.055272002061904 8.83009774189819 4.820729123031836 0 0 -1
1705 1 7.223445323404985 9.226598678792884 6.2985157136775 -2 1 0
1147 1 5.5179798192243785 6.775757497658487 5.327523274360762 -1 0 1
283 2 8.757086766953647 11.013253397356165 7.4336397914914265 0 -1 -1
335 1 9.747052808492526 9.815053793199485 6.87631490109758 0 0 -1
2358 2 9.20474314884527 9.101564212965107 5.265704202080727 3 1 0
88 2 9.195495373227557 9.433022532419553 2.8516883768088235 0 0 0
1717 1 8.102106587640062 12.3755642141147 5.3211781922236705 0 -1 -1
1141 1 13.169751840388843 6.653441662509658 6.494667526816016 0 0 1
317 1 14.768582366736318 9.117132527387188 4.440896752511385 1 0 1
1037 1 12.743775816922202 11.01339244140157 4.5467764270054865 -1 0 0
1481 2 13.55454675931435 8.68759386661799 9.309043714356172 -1 2 1
2263 2 18.885931657746827 8.472842597615942 4.015865093769232 -2 1 0
1722 1 14.3453004278043 8.991404438952893 7.8062946458639955 0 1 -1
2126 1 19.41440098797967 9.599221372927245 8.237431210939729 -1 0 0
2297 3 13.61497417991008 10.92990436363743 6.617325093281862 0 -1 -1
47 1 20.335902087597706 7.991741919738154 5.2743934399946975 0 1 0
69 2 19.622215513150582 6.12488149310647 5.165933099990596 -2 2 0
34 1 1.160964699318155 9.573194032604187 4.071211731939381 -1 -1 0
475 2 21.609950151369418 9.241354010583104 5.552283067573386 -4 2 1
2026 1 3.5882546738781036 11.608970206813083 2.6338489812406114 1 1 1
1606 1 2.9338616931381822 10.638762004266075 6.137062091277162 1 0 0
1359 2 7.5679073827534715 14.80096100490349 3.713939994967387 3 1 0
882 2 2.707999933789316 12.40485775535667 5.5481417409542635 0 1 1
1769 2 6.335205303926413 12.671577306048688 4.841681753755556 0 0 -1
1508 1 4.54174356727852 12.527114541885853 5.140463736099984 0 -1 1
1847 1 10.225866064359181 12.246335856554424 3.4429577333258394 -2 0 0
1861 2 8.363263169177728 11.800491645460523 3.622006302936515 0 0 0
1862 2 10.30406929867319 14.739301857164161 7.428480595412983 -2 0 0
737 1 10.808127577099315 12.635672436109283 6.482529221611575 1 -1 0
1172 2 7.4504192934143525 13.605974238373989 6.647236070332553 1 1 0
1980 2 13.66293841757337 11.336150956578445 3.2043761613620805 3 -1 0
1710 1 12.026092684427107 15.568020314295516 5.58032515583056 -2 1 0
1715 1 13.953385441817716 13.169770868778667 6.915677381386237 0 1 1
1696 3 16.403324319123843 13.745970218488598 5.105199066018996 0 -2 0
495 3 18.842677795950223 10.777913227357168 6.708625183400816 1 0 0
1446 1 17.99431027255124 15.793575285973557 5.058730355698227 0 1 0
1139 1 20.79191716619912 14.903890845388467 4.123376052382378 0 1 0
2033 1 20.519650991907103 10.702510509432699 5.187256485167936 -1 0 1
948 1 1.0098772978691508 12.336310731920147 5.378631080093008 1 0 0
563 2 3.490161372365328 17.075357883780775 5.506965937191347 -2 0 -1
2120 1 2.8778816868031245 18.732207199893775 4.650731874435065 0 -1 1
975 2 6.545946471800206 19.051926478047847 4.37131210658272 -1 -1 0
641 1 3.686555116088085 17.06190663262795 8.258863171181577 0 0 1
1465 2 5.419452073919535 15.964555255595002 3.9520587658330313 3 0 1
1570 2 4.467454151696971 14.863804912166216 6.372558897421947 -2 0 1
2119 1 6.441591578956528 14.23837852938971 5.289889677407537 -1 0 0
2333 1 6.228830829587873 17.6075840683352 3.280253916564529 -1 0 1
315 1 5.147703284790484 16.743005715211932 5.896485226539944 3 0 0
502 1 9.247149830063499 15.257756862991878 4.20728502437973 -1 0 1
94 3 7.327940157382112 16.520212244459213 6.6316096797239386 0 -2 -1
1211 1 9.808595111063795 17.052433369465 6.213088087212076 0 0 1
1631 1 6.940428836141251 18.642214761762116 6.679117524272152 -4 0 0
2247 1 10.634398856872805 18.38565031020628 3.960670033553065 -1 0 1
2092 3 12.559822394377862 19.647161773484473 3.26653326419422 0 0 1
708 1 13.395810425587891 17.39091446483555 7.107733390432196 -1 0 1
52 2 11.506976537649354 16.69971270754123 7.138010992815995 1 0 0
2221 1 12.340265364119254 14.857114827014128 8.025113889547129 -2 0 0
2185 2 13.392498279821465 14.762437173095934 6.339078043126692 2 0 1
826 1 19.33274438907689 18.071401711666145 3.318872519856679 0 2 -1
1619 1 15.990766795172485 14.947875165907869 6.899896616331751 1 0 0
1987 2 17.42688218305354 16.885621453404667 3.707326786900483 0 -1 2
1700 3 20.743459360307554 13.251959320659129 5.203601763541985 0 0 0
1764 2 19.848468037654246 17.189595316759853 4.7602753470441 0 0 0
634 1 19.755194002054477 17.909059698822833 6.457058200294568 -2 0 0
445 1 3.021083548611874 21.950699048390813 4.067056607686901 -1 1 0
2352 2 3.5939213393981375 20.235772764964484 3.711349758561539 0 1 1
454 2 21.231668223007265 22.47171524897532 3.5225472841683527 1 0 0
1737 1 0.08017979795752828 20.16055722366844 8.712860955742874 -1 0 1
1822 1 5.59325917849197 21.270918011894516 4.897172506878587 -2 1 1
353 2 7.820247117105829 21.360893567188068 5.467093127430696 0 0 -1
292 3 7.249492573835718 21.53791979223804 2.6221402933833984 -1 1 -1
2383 2 3.703224942917374 21.707038000033435 5.9591864499659675 1 0 0
906 1 8.12368857402937 19.5453408694961 3.927788919785477 -1 -1 -1
878 2 7.8814924953178656 18.24680444006435 2.412116991604313 1 -1 0
540 1 14.930822193544595 20.349601013846147 2.242186003742555 1 0 -1
2366 2 9.152107266850676 18.62514145876303 5.201425819906336 -1 2 0
183 2 17.19367258389592 15.266030205293873 9.945283486574409 0 -1 1
1119 1 14.296936545306693 20.002859111181575 6.33198268102192 1 1 1
1160 2 11.992539913761732 22.78520839035483 3.5525570536777322 0 0 0
886 2 18.00990908777017 20.1374988775951 5.661895802308254 1 1 1
1159 2 15.012089162222198 16.37021519057283 8.0228701091543 3 1 0
909 1 16.39099617830737 17.652443570784094 6.92511693806193 2 -1 0
2270 2 17.607878219432276 15.627147706805655 7.039612745794851 0 -1 1
2354 2 20.856547310744983 18.782968815705413 7.547327961253463 0 0 0
217 1 19.923794782468708 20.075773803008783 5.1274216305038145 0 0 0
892 3 20.458044233339628 21.25878940058722 6.7994767061001165 -1 0 0
695 3 18.186167763367873 22.47139612718095 3.0878483799829133 1 -2 0
622 1 0.5804995715095701 22.959087033386897 1.97466139392001 -1 0 0
326 1 1.3462296385394332 25.190838011684665 4.099409040978168 0 0 0
1047 1 2.6477866035330324 23.41026612711725 6.32165761209301 -1 2 0
2260 2 1.0786986230081812 25.829238782425154 6.363089815438802 -1 -1 0
1079 2 1.6759189894956825 23.656761984124422 4.958976197134939 -1 1 -1
1207 1 6.042425380484543 24.91741048863774 5.2989832590258015 2 -1 0
272 2 5.860807943587559 23.230554382557255 5.6192862791234885 0 0 0
74 2 7.689976517926608 24.762376146490954 4.349188254774432 -3 -1 -2
1711 1 5.179817928894775 22.922306065756256 7.2836063202517956 1 2 0
1061 2 10.42419674214347 24.613859641798182 2.083626019523771 2 1 0
8 1 8.242463914097208 22.940037091468277 4.9487499846438325 0 0 0
656 2 10.611626578510675 21.3008326204573 4.725216768123568 -1 -2 1
1755 2 12.111069829710033 23.565858904933048 5.716001786915409 -1 1 1
1636 1 11.140812325168842 24.387818219047702 3.8417600014281144 -1 -1 0
1740 1 12.219738955322482 21.795229169895034 5.337101648824876 -1 1 0
1378 2 14.100563516645702 27.605483154592008 6.767743134076757 -2 0 0
7 1 12.817099242620037 26.677276998495305 3.8795561396109797 1 -2 0
225 1 9.735518129388192 20.646849066854568 6.05954100124502 1 0 0
575 2 15.295690491323239 18.39397490806466 5.733472553597466 0 -1 -1
823 1 16.54729304475367 20.16198250352332 4.436479964458672 -1 0 1
954 2 16.525664489581544 26.632393105592158 4.219973282049485 0 0 0
979 2 17.86645815149173 24.70126225426169 4.959868362783206 1 0 1
1855 2 21.273827220119916 23.487106212195446 8.196434285197833 1 -1 0
1030 1 0.4260409123170674 22.653888800028597 5.3324142316167755 -1 1 0
1111 1 19.013570302023258 26.20689734880391 4.936532162776249 0 1 0
216 1 21.453820233539712 24.77217662634394 6.987009596875952 -3 -1 0
1672 2 20.36854472202305 25.00073501616456 4.705998020534936 -2 0 0
478 2 0.9793911348389516 28.760514308485774 6.850922128376546 -2 0 -1
1789 2 1.5345037061495161 27.34733704750972 3.994838691986246 0 -2 0
333 1 1.523653718815154 27.355953548606312 5.758900091787606 3 -1 0
2295 3 4.195371363359628 25.116531992697833 6.542124358164963 -1 0 1
1022 1 4.1462310200337535 29.350150761971417 4.486530782486294 0 1 -1
766 2 3.7725679182684315 29.092385554220602 2.60029848453712 2 -2 0
1121 1 5.5159550524053005 26.86740395744579 7.172956525508781 0 -1 -1
1088 2 9.992334505130374 25.869587035391824 4.096507852501192 -1 1 1
2318 1 10.180528452874611 27.803571984682655 3.609925340845232 2 -1 0
2213 1 8.760045312882719 25.69502674351874 5.249734625085813 -1 2 0
253 2 5.944947215509475 26.84955302931448 5.07438082754533 1 -1 0
2254 2 8.691243492031072 28.25922063407688 4.569862472142073 2 -1 0
2152 2 9.317483379600805 24.114121858206143 6.193377923328105 1 -1 -2
2030 1 12.453383244256441 28.398275179712876 6.174501138463505 1 0 1
2356 2 11.946055729212949 28.129424831200676 3.401072639998456 -1 0 2
971 2 13.190627081322118 28.142753896350147 9.47412656459916 -1 -1 0
704 1 13.498728866698439 24.658349997655705 6.1782561859000396 1 0 0
167 2 16.38880413842777 26.16772144777996 8.17027761351995 -1 -1 0
1232 1 16.076780379537283 25.003902839506527 4.30598437989883 -1 -1 1
730 1 15.10445524597771 28.07255242256414 4.982737568891766 3 -2 0
1590 2 19.84641575064073 26.0322005791422 7.5699391620125684 -3 0 0
2141 1 17.183211869429677 27.772020604160073 7.028982895528495 0 0 1
1267 2 19.40779997912646 27.3109664119813 3.4537724660415656 -2 -3 2
1857 2 2.1881406853590493 0.5139582669655207 5.098119970576846 0 1 0
993 3 2.205950932031367 30.3506827388885 4.647519594948882 2 -1 -1
44 1 3.2156493979999548 32.03721946345746 5.893217418575688 1 0 1
558 2 4.637274802032107 0.29463662414208697 5.251226064707229 1 1 0
552 2 5.651439194566566 30.402567083182497 3.2043169813828927 0 -1 0
2009 1 5.541106958522448 29.16080546342272 2.060276652799287 -1 -2 1
224 1 5.642256941147487 32.21475938602366 3.1703434004881657 0 -1 0
428 1 1.4988800270034652 31.14368925231173 7.02027733518647 0 0 -1
1298 3 7.48800645407172 0.06588283670916452 4.010910959243874 2 3 -1
221 1 9.25274035965184 0.5886992765016354 7.468442435876281 -2 0 0
103 1 6.7803004228574055 28.24783704235368 4.7764148489273985 -1 0 1
675 2 13.98607211484996 27.762407356484452 3.6457354403122557 -1 -1 1
891 3 10.339149931035058 31.918658519643557 5.4032971664354115 -3 0 0
41 1 14.471341645699797 0.6157573018693974 5.046947189333264 0 -1 -1
371 2 12.713447458220461 30.105096104141023 5.630826778736328 1 -1 -1
1712 1 11.508293563965308 30.526854643086253 3.860266878311555 1 -1 1
150 1 14.71703196977356 29.468220896490994 7.903837556826421 -1 -1 -1
1888 2 15.924794216300127 29.043664313214133 6.538028787525656 3 -1 0
943 1 15.789215380896419 32.436738211948175 7.494472278859434 -1 -1 1
1934 1 19.306165102549738 0.1926830630696347 6.844889900224779 -1 1 2
1778 2 17.653449841493394 31.82207902130492 7.037681376691815 0 -2 0
1923 1 17.14239212902951 30.847137302639627 5.517298661845812 0 -1 0
2308 1 21.762197691456517 29.275040728493224 5.362375128773914 0 -2 0
1694 3 21.160430203795315 31.91641135305988 5.780888156797397 0 -1 1
2112 1 19.205106304263076 2.1285937359962714 8.164296294968166 -2 1 0
1491 3 19.158458147614358 28.7312721206528 6.157657845655182 -1 0 1
2057 2 0.244536832318675 32.1055628064624 8.45332299867161 -2 -1 1
1404 1 1.978502902462416 2.4735534033863473 9.887292445260986 0 -1 0
189 2 1.0869138538373437 2.9069258075345203 8.55604545774107 -1 0 0
1747 1 3.4458457650220593 0.30001571041273983 11.573608805242236 1 2 1