#FLiNa 100 atoms 2,1,1 ratios

100  atoms
0  bonds
0  angles
0  dihedrals
0  impropers

3  atom types
0  bond types
0  angle types
0  dihedral types
0  improper types

0.0 10.826604788884401 xlo xhi
0.0 10.826604788884401 ylo yhi
0.0 10.826604788884401 zlo zhi

Masses

1 18.998403163    # F
2 6.938           # Li
3 22.989769       # Na

Atoms # 

 1 1 1.353 -6.312 16.871
2 1 -5.699 11.311 18.943
3 1 -2.156 1.309 -10.521
4 1 10.685 1.674 6.194
5 1 16.176 1.952 4.754
6 1 23.754 -9.846 7.411
7 1 6.483 5.835 8.222
8 1 15.094 6.088 6.7 
9 1 -16.677 8.87 -5.54 
10 1 9.525 4.903 16.123
11 1 -8.762 7.959 -9.576
12 1 7.837 -13.009 -13.475
13 1 5.697 14.37 -1.114
14 1 -4.533 -0.652 -10.398
15 1 11.536 4.303 3.123
16 1 -1.795 25.246 2.227
17 1 10.278 10.159 -4.871
18 1 -7.854 2.443 12.644
19 1 7.605 -4.921 -10.394
20 1 16.976 13.225 23.568
21 1 4.616 4.507 1.998
22 1 5.021 -3.77 2.779
23 1 7.07 -1.436 -18.836
24 1 0.674 -11.144 1.733
25 1 2.006 8.354 18.976
26 1 0.41 10.943 9.263
27 1 -8.655 -16.116 8.45 
28 1 4.351 10.809 2.7 
29 1 11.727 -14.253 -4.733
30 1 17.851 -11.168 -5.616
31 1 -1.442 -4.74 -3.085
32 1 7.845 29.222 5.532
33 1 -7.444 4.344 4.445
34 1 -1.608 17.095 13.693
35 1 -15.433 13.964 6.933
36 1 -10.554 13.392 0.58 
37 1 12.961 23.297 -17.388
38 1 -1.415 -2.296 -0.288
39 1 13.518 5.333 1.057
40 1 10.626 -15.943 11.055
41 1 -2.907 1.442 18.954
42 1 3.244 -18.528 7.297
43 1 1.837 20.624 -6.232
44 1 11.153 -8.124 19.227
45 1 -1.537 0.982 14.529
46 1 3.113 -10.21 10.373
47 1 6.949 -6.215 14.821
48 1 4.79 7.377 10.984
49 1 2.392 7.16 15.023
50 1 -2.242 14.534 -12.112
51 2 10.995 20.432 0.187
52 2 14.93 17.112 1.636
53 2 34.797 17.784 -3.405
54 2 13.548 4.039 2.416
55 2 18.756 -3.944 7.581
56 2 3.037 8.285 -5.765
57 2 -18.769 15.427 17.186
58 2 -4.677 1.423 27.88 
59 2 7.506 13.844 -2.608
60 2 0.877 8.54 4.716
61 2 17.453 -13.676 -6.802
62 2 9.68 13.211 10.019
63 2 5.63 16.013 17.756
64 2 12.316 2.634 28.531
65 2 10.123 2.116 23.389
66 2 8.934 17.212 -6.196
67 2 6.815 1.205 0.969
68 2 16.463 -0.322 -7.187
69 2 11.364 0.202 7.374
70 2 1.428 6.523 11.425
71 2 8.423 10.523 13.972
72 2 18.775 16.007 23.887
73 2 2.298 0.133 30.557
74 2 -5.076 3.242 3.328
75 2 19.608 0.147 5.438
76 2 -8.835 3.298 -6.496
77 2 5.076 27.006 15.05 
78 2 4.736 13.089 -2.822
79 2 -1.553 -4.066 11.136
80 2 16.123 14.361 0.642
81 2 0.616 32.896 -6.357
82 2 4.455 32.016 20.977
83 2 -0.592 26.546 -19.562
84 2 1.472 1.41 11.786
85 2 10.622 16.519 6.538
86 2 -5.597 -13.268 1.673
87 2 23.178 5.61 3.858
88 2 7.08 4.672 9.817
89 2 -1.187 -8.233 -14.26 
90 2 14.367 23.431 13.856
91 3 34.489 14.008 -1.529
92 3 17.145 20.356 -3.761
93 3 -0.036 5.256 9.135
94 3 -6.669 27.439 -12.095
95 3 3.642 0.228 -5.31 
96 3 -2.373 24.958 25.868
97 3 10.235 -2.411 -3.091
98 3 8.166 -11.149 21.092
99 3 17.623 7.278 21.131
100 3 -19.346 -11.975 13.302