LAMMPS (29 Sep 2021 - Update 2)
OMP_NUM_THREADS environment is not set. Defaulting to 1 thread. (src/comm.cpp:98)
  using 1 OpenMP thread(s) per MPI task
# lmp -in therm.lammps
# Muller-Plathe method via fix thermal_conductivity

# conda activate nequip_cuda10.1
# export CUDA_VISIBLE_DEVICES=2
#   lmp -in run_therm_1200
# nohup lmp -in run_therm_1200 > therm_1200_job.out #job =8154
# 1) Initialization
units metal
dimension 3
newton off on
atom_style atomic
boundary p p p



# 2) System definition
read_data	FLiNa_41_1200_100_startpoint.lammps
Reading data file ...
  orthogonal box = (0.0000000 0.0000000 0.0000000) to (10.826605 10.826605 10.826605)
  1 by 1 by 1 MPI processor grid
WARNING: Atom style in data file differs from currently defined atom style (src/read_data.cpp:516)
  reading atoms ...
  100 atoms
  read_data CPU = 0.001 seconds


# 3) Simulation settings
pair_style	nequip
pair_coeff	* * FLiNa_f_pyt10.2 F Li Na #Li F Na

# 4) NPT:
replicate 2 3 4
Replicating atoms ...
  orthogonal box = (0.0000000 0.0000000 0.0000000) to (21.653210 32.479814 43.306419)
  1 by 1 by 1 MPI processor grid
  2400 atoms
  replicate CPU = 0.001 seconds

# thermo 1
# minimize 1.00e-9 1.0e-9 1000000 10000000
# run 100


timestep .001 # fetmoseconds
variable Tsim equal 1200 # Kelvin
velocity all create ${Tsim} 12335
velocity all create 1200 12335

#-------------------------------------------
# 1st equilibration run
fix 1 all nvt temp ${Tsim} ${Tsim} $(100.0*dt)
fix 1 all nvt temp 1200 ${Tsim} $(100.0*dt)
fix 1 all nvt temp 1200 1200 $(100.0*dt)
fix 1 all nvt temp 1200 1200 0.10000000000000000555
thermo          100
run 50000
Neighbor list info ...
  update every 1 steps, delay 10 steps, check yes
  max neighbors/atom: 2000, page size: 100000
  master list distance cutoff = 7
  ghost atom cutoff = 7
  binsize = 3.5, bins = 7 10 13
  1 neighbor lists, perpetual/occasional/extra = 1 0 0
  (1) pair nequip, perpetual
      attributes: full, newton off
      pair build: full/bin/atomonly
      stencil: full/bin/3d
      bin: standard
Per MPI rank memory allocation (min/avg/max) = 3.995 | 3.995 | 3.995 Mbytes
Step Temp E_pair E_mol TotEng Press 
       0         1200   -10949.434            0   -10577.319    13049.899 
     100    1189.3768   -10951.246            0   -10582.426    12934.372 
     200    1192.7168   -10966.034            0   -10596.179    12970.694 
     300    1184.4543   -10964.111            0   -10596.818     12880.84 
     400    1178.7415    -10957.52            0   -10591.998    12818.714 
     500    1181.3865   -10950.651            0   -10584.309    12847.478 
     600    1208.2959    -10952.58            0   -10577.893    13140.116 
     700    1219.3028   -10955.867            0   -10577.767    13259.814 
     800    1203.5915   -10954.368            0    -10581.14    13088.956 
     900    1197.1788   -10952.172            0   -10580.933    13019.218 
    1000    1194.6585    -10952.84            0   -10582.382    12991.811 
    1100    1193.1898   -10956.514            0   -10586.511    12975.838 
    1200    1182.9695    -10958.39            0   -10591.557    12864.693 
    1300    1192.7711   -10960.395            0   -10590.522    12971.285 
    1400    1207.6121   -10950.334            0   -10575.859    13132.679 
    1500    1208.3878   -10945.726            0    -10571.01    13141.116 
    1600    1196.5073   -10945.423            0   -10574.392    13011.916 
    1700    1179.1855   -10949.818            0   -10584.159    12823.542 
    1800    1182.5919   -10958.674            0   -10591.958    12860.587 
    1900    1166.3529   -10944.314            0   -10582.634    12683.989 
    2000    1210.7381   -10945.382            0   -10569.938    13166.674 
    2100    1230.1766   -10952.499            0   -10571.027    13378.066 
    2200    1199.1149   -10954.232            0   -10582.393    13040.274 
    2300    1188.3153   -10959.052            0   -10590.561    12922.829 
    2400    1181.6225   -10954.511            0   -10588.095    12850.044 
    2500    1177.4106   -10949.209            0     -10584.1    12804.241 
    2600    1215.8159   -10958.039            0   -10581.021    13221.895 
    2700    1204.4481   -10953.395            0   -10579.901    13098.271 
    2800    1184.0795   -10946.396            0   -10579.219    12876.765 
    2900    1198.4826   -10954.643            0   -10582.999    13033.397 
    3000    1206.4361   -10973.997            0   -10599.887    13119.891 
    3100    1176.4584   -10966.624            0    -10601.81    12793.886 
    3200    1181.1099   -10960.287            0   -10594.031     12844.47 
    3300    1199.9807    -10958.99            0   -10586.882    13049.689 
    3400    1208.2115   -10956.653            0   -10581.993    13139.198 
    3500    1219.4892   -10959.008            0    -10580.85    13261.842 
    3600    1181.3821   -10949.739            0   -10583.398    12847.431 
    3700    1197.8898   -10958.456            0   -10586.996    13026.951 
    3800    1183.4114    -10964.37            0     -10597.4    12869.499 
    3900    1203.2373   -10969.798            0    -10596.68    13085.104 
    4000    1184.2243   -10949.831            0   -10582.609     12878.34 
    4100    1211.1899   -10949.219            0   -10573.635    13171.587 
    4200    1217.0864   -10952.356            0   -10574.944    13235.712 
    4300    1197.8566   -10954.417            0   -10582.968    13026.589 
    4400     1162.803   -10954.915            0   -10594.336    12645.384 
    4500    1163.5517   -10954.938            0   -10594.126    12653.527 
    4600     1213.815    -10952.39            0   -10575.992    13200.136 
    4700    1211.0889   -10946.818            0   -10571.266     13170.49 
    4800    1211.4059   -10945.883            0   -10570.232    13173.937 
    4900     1215.607    -10951.89            0   -10574.936    13219.624 
    5000    1165.6589   -10948.508            0   -10587.043    12676.442 
    5100    1176.8773    -10954.93            0   -10589.986    12798.441 
    5200    1229.6348   -10958.174            0    -10576.87    13372.174 
    5300     1228.252   -10947.529            0   -10566.654    13357.137 
    5400    1237.6979   -10956.574            0    -10572.77     13459.86 
    5500    1213.9401   -10956.173            0   -10579.736    13201.496 
    5600    1175.5197    -10950.88            0   -10586.357    12783.678 
    5700    1197.8226   -10959.678            0   -10588.239     13026.22 
    5800    1195.4192   -10955.102            0   -10584.408    13000.083 
    5900    1221.0744    -10954.12            0   -10575.471    13279.081 
    6000    1196.1201   -10950.228            0   -10579.317    13007.705 
    6100    1194.9913   -10961.387            0   -10590.826     12995.43 
    6200    1177.9929   -10962.022            0   -10596.733    12810.573 
    6300    1192.1023   -10958.097            0   -10588.432    12964.012 
    6400    1195.2928   -10953.739            0   -10583.085    12998.708 
    6500    1187.0799   -10952.902            0   -10584.795    12909.393 
    6600    1195.1724   -10954.716            0   -10584.099    12997.399 
    6700    1203.6795   -10945.736            0   -10572.481    13089.912 
    6800    1227.5032   -10946.228            0   -10565.585    13348.994 
    6900    1193.0109   -10943.457            0    -10573.51    12973.893 
    7000    1187.7167    -10944.86            0   -10576.555    12916.319 
    7100    1196.2283   -10949.829            0   -10578.885    13008.882 
    7200    1190.5497   -10950.955            0   -10581.771    12947.127 
    7300    1210.4579   -10952.905            0   -10577.548    13163.627 
    7400    1200.7543   -10941.714            0   -10569.366    13058.102 
    7500    1231.9118   -10948.089            0   -10566.079    13396.936 
    7600    1210.0903   -10950.451            0   -10575.208     13159.63 
    7700    1199.1269   -10959.334            0   -10587.491    13040.404 
    7800    1175.6679   -10953.215            0   -10588.646    12785.289 
    7900    1191.3295   -10950.979            0   -10581.553    12955.607 
    8000    1197.2698   -10948.722            0   -10577.454    13020.207 
    8100    1214.0116   -10954.777            0   -10578.318    13202.274 
    8200    1197.2097   -10957.729            0   -10586.481    13019.554 
    8300     1159.756   -10965.523            0   -10605.889    12612.249 
    8400    1164.2827   -10955.354            0   -10594.316    12661.476 
    8500    1206.8571   -10954.845            0   -10580.604    13124.469 
    8600    1220.5375   -10953.458            0   -10574.975    13273.242 
    8700    1195.9143   -10949.598            0   -10578.751    13005.467 
    8800    1201.1573   -10963.577            0   -10591.104    13062.485 
    8900     1189.205   -10962.572            0   -10593.806    12932.504 
    9000    1214.3418   -10963.537            0   -10586.976    13205.864 
    9100    1195.5702   -10955.226            0   -10584.485    13001.725 
    9200    1196.7902   -10956.308            0   -10585.189    13014.992 
    9300    1187.0883   -10951.374            0   -10583.264    12909.485 
    9400    1206.9841   -10942.577            0   -10568.297     13125.85 
    9500    1211.0075    -10939.27            0   -10563.742    13169.605 
    9600    1208.9026   -10946.565            0   -10571.691    13146.714 
    9700    1197.3854   -10952.073            0    -10580.77    13021.465 
    9800     1198.514   -10953.683            0   -10582.029    13033.738 
    9900    1212.9685   -10951.862            0   -10575.727     13190.93 
   10000    1223.8957   -10943.041            0   -10563.517    13309.762 
   10100    1245.6307   -10940.062            0   -10553.799    13546.129 
   10200    1235.0853   -10952.718            0   -10569.724    13431.448 
   10300    1203.5283   -10952.911            0   -10579.703    13088.269 
   10400    1212.9682   -10962.167            0   -10586.032    13190.927 
   10500    1181.0877   -10958.898            0   -10592.649    12844.229 
   10600    1206.2163    -10970.01            0   -10595.968      13117.5 
   10700    1181.7526   -10957.752            0   -10591.296    12851.459 
   10800    1208.3119   -10950.958            0   -10576.266     13140.29 
   10900    1208.1072   -10950.001            0   -10575.373    13138.064 
   11000    1211.3514   -10960.604            0   -10584.969    13173.344 
   11100    1165.4145   -10953.161            0   -10591.772    12673.784 
   11200    1180.2531   -10952.352            0   -10586.361    12835.152 
   11300    1215.6954    -10956.66            0   -10579.679    13220.584 
   11400    1202.1503   -10950.274            0   -10577.494    13073.283 
   11500    1216.0816   -10953.249            0   -10576.148    13224.785 
   11600    1193.4094   -10954.995            0   -10584.925    12978.226 
   11700    1180.9216   -10959.318            0    -10593.12    12842.423 
   11800    1171.5845   -10947.591            0   -10584.288    12740.882 
   11900    1219.4159    -10950.94            0   -10572.806    13261.045 
   12000    1190.6594   -10944.764            0   -10575.546     12948.32 
   12100    1205.5215   -10957.856            0    -10584.03    13109.944 
   12200    1177.8934   -10953.167            0   -10587.908    12809.491 
   12300    1200.9802   -10954.363            0   -10581.945    13060.558 
   12400    1202.4755   -10952.384            0   -10579.502    13076.819 
   12500    1209.5478   -10953.521            0   -10578.447     13153.73 
   12600    1189.8128   -10948.468            0   -10579.513    12939.114 
   12700    1190.9875    -10948.58            0   -10579.261    12951.888 
   12800    1191.0872   -10941.068            0   -10571.718    12952.973 
   12900    1207.7753   -10936.106            0   -10561.581    13134.455 
   13000    1251.7917   -10953.106            0   -10564.932    13613.128 
   13100    1207.8165   -10953.812            0   -10579.274    13134.903 
   13200    1152.2667   -10938.867            0   -10581.555    12530.804 
   13300    1187.7008   -10943.395            0   -10575.094    12916.146 
   13400       1213.4   -10944.438            0   -10568.169    13195.622 
   13500    1207.4509   -10945.286            0   -10570.862    13130.926 
   13600    1180.8525   -10953.271            0   -10587.094    12841.671 
   13700    1190.7589   -10957.011            0   -10587.762    12949.402 
   13800    1213.7135   -10961.243            0   -10584.877    13199.032 
   13900    1212.5473   -10951.963            0   -10575.958     13186.35 
   14000    1212.5896    -10941.29            0   -10565.272    13186.809 
   14100    1204.6173   -10942.934            0   -10569.388    13100.111 
   14200    1197.5263   -10955.559            0   -10584.212    13022.997 
   14300    1190.3793   -10957.832            0   -10588.701    12945.274 
   14400    1183.3052   -10951.224            0   -10584.287    12868.344 
   14500    1214.1703   -10956.747            0   -10580.239    13203.999 
   14600    1204.5464   -10947.634            0    -10574.11     13099.34 
   14700    1248.6867    -10946.34            0   -10559.128    13579.362 
   14800    1232.3785   -10946.876            0   -10564.721    13402.012 
   14900    1198.8212   -10945.379            0    -10573.63    13037.079 
   15000    1194.5207   -10945.071            0   -10574.656    12990.311 
   15100    1204.5424   -10956.546            0   -10583.023    13099.297 
   15200     1180.948   -10958.925            0   -10592.719     12842.71 
   15300    1173.1173    -10954.49            0   -10590.712    12757.551 
   15400    1163.4773   -10944.444            0   -10583.656    12652.718 
   15500    1205.8681   -10953.161            0   -10579.227    13113.714 
   15600    1212.8601   -10956.646            0   -10580.545    13189.751 
   15700    1206.2593   -10958.916            0   -10584.861    13117.968 
   15800    1209.6748   -10964.065            0   -10588.951    13155.112 
   15900    1160.6744    -10956.59            0    -10596.67    12622.236 
   16000    1184.2424   -10956.765            0   -10589.537    12878.536 
   16100    1206.5207   -10950.538            0   -10576.402     13120.81 
   16200    1238.4441   -10956.165            0    -10572.13    13467.975 
   16300    1194.4304   -10952.614            0   -10582.227     12989.33 
   16400    1174.3705   -10948.817            0   -10584.651     12771.18 
   16500    1195.8245    -10950.59            0   -10579.771    13004.491 
   16600    1225.3527   -10954.852            0   -10574.876    13325.607 
   16700     1200.265   -10953.039            0   -10580.843     13052.78 
   16800    1179.1644   -10959.731            0   -10594.078    12823.313 
   16900    1206.0971   -10967.359            0   -10593.355    13116.204 
   17000    1187.0111   -10950.716            0    -10582.63    12908.645 
   17100    1196.4142   -10942.505            0   -10571.503    13010.903 
   17200    1232.3561     -10952.9            0   -10570.753    13401.769 
   17300    1179.1704   -10943.521            0   -10577.866    12823.379 
   17400    1181.5088   -10950.934            0   -10584.554    12848.809 
   17500    1222.1013   -10955.901            0   -10576.934    13290.249 
   17600    1232.2719   -10943.747            0   -10561.626    13400.853 
   17700    1238.7079   -10949.306            0   -10565.188    13470.844 
   17800    1213.6994   -10954.138            0   -10577.775    13198.878 
   17900    1194.3894   -10953.677            0   -10583.302    12988.884 
   18000     1188.461   -10955.911            0   -10587.375    12924.413 
   18100    1198.7926   -10959.307            0   -10587.567    13036.769 
   18200    1207.5817   -10950.595            0    -10576.13    13132.349 
   18300    1229.3642   -10946.878            0   -10565.658    13369.232 
   18400     1219.954   -10952.419            0   -10574.117    13266.896 
   18500    1189.8984   -10954.847            0   -10585.865    12940.044 
   18600    1175.4521   -10951.858            0   -10587.356    12782.942 
   18700    1181.8705   -10946.566            0   -10580.074    12852.742 
   18800    1196.0348   -10946.115            0   -10575.231    13006.778 
   18900    1187.5873   -10945.654            0   -10577.389    12914.911 
   19000    1200.2492   -10951.406            0   -10579.215    13052.608 
   19100    1200.7859   -10954.802            0   -10582.444    13058.446 
   19200    1192.3864   -10954.562            0   -10584.808    12967.101 
   19300    1187.7735   -10951.897            0   -10583.575    12916.937 
   19400     1191.605    -10954.51            0   -10584.999    12958.604 
   19500     1198.152   -10955.928            0   -10584.387    13029.802 
   19600    1216.5523   -10959.581            0   -10582.334    13229.904 
   19700    1201.8614   -10953.794            0   -10581.103    13070.142 
   19800    1194.4135   -10947.809            0   -10577.427    12989.146 
   19900    1240.1094   -10957.758            0   -10573.206    13486.085 
   20000    1203.3061   -10953.019            0   -10579.879    13085.852 
   20100    1175.5079   -10954.307            0   -10589.787    12783.549 
   20200    1200.9901   -10966.684            0   -10594.262    13060.666 
   20300    1179.0429   -10959.261            0   -10593.645    12821.992 
   20400    1219.9004   -10956.476            0    -10578.19    13266.314 
   20500    1207.7001   -10949.841            0   -10575.339    13133.637 
   20600    1202.5448   -10954.019            0   -10581.115    13077.573 
   20700    1187.0495   -10958.273            0   -10590.175    12909.063 
   20800    1189.1816   -10965.947            0   -10597.188    12932.249 
   20900    1186.1027   -10957.707            0   -10589.902    12898.767 
   21000    1195.5208   -10947.578            0   -10576.853    13001.188 
   21100    1220.4677   -10952.467            0   -10574.006    13272.483 
   21200    1196.0099   -10950.082            0   -10579.205    13006.507 
   21300    1167.4561   -10954.246            0   -10592.224    12695.986 
   21400    1176.5461   -10955.414            0   -10590.573     12794.84 
   21500    1200.6596   -10950.767            0   -10578.448    13057.071 
   21600    1228.2888   -10957.499            0   -10576.613    13357.537 
   21700    1199.7996   -10953.411            0   -10581.359    13047.719 
   21800    1187.7059   -10956.453            0   -10588.151    12916.201 
   21900    1182.2245   -10959.615            0   -10593.013    12856.592 
   22000    1215.9273   -10965.716            0   -10588.663    13223.107 
   22100    1182.1337   -10940.079            0   -10573.505    12855.605 
   22200    1227.1222    -10949.03            0   -10568.506    13344.851 
   22300    1187.2254   -10944.806            0   -10576.653    12910.976 
   22400    1199.3396   -10953.098            0   -10581.188    13042.717 
   22500    1197.7373    -10957.53            0   -10586.118    13025.292 
   22600    1155.4791   -10961.099            0    -10602.79    12565.737 
   22700    1160.6953   -10959.726            0     -10599.8    12622.464 
   22800    1180.5205   -10953.244            0   -10587.171    12838.061 
   22900    1197.7169   -10951.399            0   -10579.993    13025.071 
   23000    1209.9457   -10950.138            0   -10574.939    13158.058 
   23100    1202.6007   -10947.157            0   -10574.237    13078.181 
   23200    1202.9401   -10950.773            0   -10577.748    13081.872 
   23300    1185.8632   -10949.875            0   -10582.145    12896.163 
   23400    1209.3185   -10953.359            0   -10578.356    13151.236 
   23500    1225.0053   -10953.416            0   -10573.548    13321.829 
   23600    1182.2265   -10943.451            0   -10576.849    12856.614 
   23700    1174.0768   -10950.098            0   -10586.022    12767.986 
   23800    1149.9201   -10946.079            0   -10589.495    12505.284 
   23900    1216.8227    -10952.79            0   -10575.459    13232.844 
   24000    1217.8224   -10946.297            0   -10568.656    13243.715 
   24100      1229.21   -10956.783            0   -10575.611    13367.555 
   24200    1208.7005   -10959.689            0   -10584.877    13144.516 
   24300     1172.716   -10949.749            0   -10586.096    12753.187 
   24400    1199.3237    -10950.67            0   -10578.766    13042.544 
   24500    1198.7962   -10946.285            0   -10574.544    13036.807 
   24600    1238.0913    -10960.28            0   -10576.354    13464.138 
   24700    1174.6953   -10945.158            0   -10580.891    12774.712 
   24800    1230.7524   -10960.745            0   -10579.095    13384.328 
   24900    1221.8104   -10954.722            0   -10575.844    13287.084 
   25000    1194.2144   -10944.303            0   -10573.983    12986.981 
   25100    1227.2066   -10937.404            0   -10556.854    13345.769 
   25200    1225.5383   -10937.932            0   -10557.898    13327.625 
   25300    1209.4383   -10948.988            0   -10573.947    13152.539 
   25400    1181.3887   -10945.065            0   -10578.723    12847.502 
   25500    1217.8943   -10956.809            0   -10579.146    13244.498 
   25600    1177.8678   -10943.026            0   -10577.775    12809.213 
   25700    1218.0808    -10949.39            0   -10571.669    13246.526 
   25800    1208.7238   -10948.202            0   -10573.383     13144.77 
   25900    1195.8649   -10957.817            0   -10586.986     13004.93 
   26000    1199.9021   -10964.074            0    -10591.99    13048.834 
   26100      1208.61   -10964.177            0   -10589.393    13143.532 
   26200    1254.0553    -10964.39            0   -10575.513    13637.746 
   26300     1214.463   -10947.168            0   -10570.569    13207.182 
   26400    1216.7889   -10954.699            0   -10577.379    13232.477 
   26500    1183.4209   -10959.552            0   -10592.579    12869.602 
   26600    1151.7892   -10965.288            0   -10608.124    12525.611 
   26700    1186.6093   -10984.021            0   -10616.059    12904.276 
   26800    1140.2295   -10957.082            0   -10603.502    12399.899 
   26900    1194.5293   -10962.455            0   -10592.037    12990.406 
   27000    1192.4131   -10953.222            0    -10583.46    12967.392 
   27100    1212.7952   -10953.658            0   -10577.576    13189.045 
   27200    1208.4257   -10952.281            0   -10577.554    13141.528 
   27300    1204.5763    -10954.42            0   -10580.887    13099.665 
   27400    1197.8899   -10957.354            0   -10585.895    13026.952 
   27500    1163.0718   -10949.876            0   -10589.213    12648.308 
   27600    1204.5977   -10958.102            0   -10584.562    13099.898 
   27700    1207.7096   -10948.125            0    -10573.62     13133.74 
   27800    1236.9951    -10949.62            0   -10566.034    13452.218 
   27900    1234.4601   -10952.462            0   -10569.662    13424.649 
   28000    1202.6357   -10962.158            0   -10589.227    13078.561 
   28100    1198.8321   -10963.523            0   -10591.772    13037.197 
   28200    1196.7015   -10956.138            0   -10585.046    13014.028 
   28300    1217.2997   -10951.391            0   -10573.912    13238.032 
   28400     1224.218   -10955.995            0   -10576.371    13313.267 
   28500    1187.6311   -10952.507            0   -10584.228    12915.388 
   28600    1195.9915   -10954.857            0   -10583.986    13006.307 
   28700     1213.918   -10960.869            0   -10584.439    13201.256 
   28800    1194.3426   -10954.814            0   -10584.455    12988.375 
   28900    1247.2905   -10955.847            0   -10569.068    13564.179 
   29000    1251.5514   -10952.485            0   -10564.385    13610.516 
   29100    1223.1783   -10955.109            0   -10575.808    13301.961 
   29200    1198.8405   -10952.979            0   -10581.225    13037.289 
   29300    1220.8342   -10959.304            0   -10580.729    13276.469 
   29400    1209.4293   -10959.387            0   -10584.349    13152.442 
   29500    1175.1876   -10961.477            0   -10597.057    12780.065 
   29600    1163.4983   -10961.673            0   -10600.878    12652.946 
   29700    1216.9275   -10965.675            0   -10588.312    13233.984 
   29800    1220.5824   -10961.108            0   -10582.612     13273.73 
   29900    1182.0262   -10947.954            0   -10581.414    12854.435 
   30000    1218.4525   -10954.121            0   -10576.285    13250.568 
   30100    1190.8133   -10940.575            0    -10571.31    12949.994 
   30200    1214.7083   -10939.734            0   -10563.059     13209.85 
   30300    1216.5165   -10936.406            0    -10559.17    13229.514 
   30400     1223.302   -10952.821            0   -10573.481    13303.306 
   30500    1184.6051   -10949.312            0   -10581.971     12882.48 
   30600    1204.2914   -10956.159            0   -10582.714    13096.567 
   30700     1195.189   -10951.165            0   -10580.543    12997.579 
   30800    1222.1225   -10949.703            0   -10570.729    13290.479 
   30900    1233.5326   -10944.088            0   -10561.575    13414.563 
   31000    1228.7214   -10950.108            0   -10569.088    13362.242 
   31100    1175.4827   -10948.347            0   -10583.835    12783.275 
   31200    1196.7464   -10953.501            0   -10582.396    13014.516 
   31300    1214.6246   -10952.213            0   -10575.564     13208.94 
   31400    1214.9488   -10946.385            0   -10569.635    13212.465 
   31500    1209.9154   -10946.236            0   -10571.048    13157.727 
   31600    1176.8096    -10954.59            0   -10589.667    12797.705 
   31700    1183.8894   -10954.904            0   -10587.786    12874.697 
   31800    1182.3332   -10945.755            0   -10579.119    12857.773 
   31900    1216.8174   -10948.806            0   -10571.477    13232.786 
   32000    1204.9226   -10946.429            0   -10572.788    13103.431 
   32100    1179.0273   -10955.783            0   -10590.173    12821.822 
   32200    1174.8918   -10960.404            0   -10596.076    12776.849 
   32300    1189.0047   -10957.607            0   -10588.903    12930.326 
   32400    1237.1588   -10961.096            0   -10577.459    13453.998 
   32500    1206.1698   -10951.111            0   -10577.084    13116.995 
   32600    1186.5226   -10950.084            0   -10582.149    12903.333 
   32700    1184.5137   -10957.897            0   -10590.586    12881.487 
   32800    1191.5421   -10964.524            0   -10595.033    12957.919 
   32900     1202.732   -10955.463            0   -10582.502    13079.609 
   33000    1224.6638   -10952.478            0   -10572.715    13318.115 
   33100    1188.1742   -10947.967            0    -10579.52    12921.295 
   33200    1173.4817   -10948.312            0   -10584.421    12761.514 
   33300    1223.1565   -10957.118            0   -10577.823    13301.723 
   33400    1210.5138   -10941.987            0   -10566.613    13164.235 
   33500    1238.5596   -10943.673            0   -10559.602    13469.232 
   33600    1195.2211   -10942.642            0   -10572.009    12997.928 
   33700    1169.1406   -10942.488            0   -10579.944    12714.305 
   33800    1194.0046   -10950.346            0   -10580.091    12984.699 
   33900    1194.0641   -10949.821            0   -10579.548    12985.346 
   34000    1222.2824   -10953.624            0     -10574.6    13292.218 
   34100    1196.6912   -10940.908            0    -10569.82    13013.915 
   34200     1186.002   -10944.691            0   -10576.918    12897.672 
   34300    1217.6787    -10961.28            0   -10583.684    13242.153 
   34400    1163.8403   -10955.036            0   -10594.135    12656.665 
   34500    1183.0382   -10966.291            0   -10599.437    12865.441 
   34600    1173.2878   -10949.766            0   -10585.935    12759.405 
   34700    1207.3751   -10949.101            0   -10574.699    13130.103 
   34800    1202.3813   -10952.412            0    -10579.56    13075.795 
   34900    1210.4899   -10963.529            0   -10588.162    13163.975 
   35000    1201.3294   -10964.298            0   -10591.772    13064.356 
   35100    1183.9577   -10955.507            0   -10588.367     12875.44 
   35200    1206.7786   -10947.704            0   -10573.488    13123.615 
   35300    1183.9573   -10937.525            0   -10570.386    12875.435 
   35400    1187.6929   -10938.924            0   -10570.626     12916.06 
   35500    1202.7648   -10953.062            0    -10580.09    13079.966 
   35600    1160.3662   -10948.933            0   -10589.109    12618.885 
   35700    1165.4526   -10944.308            0   -10582.907    12674.198 
   35800    1230.1496   -10951.229            0   -10569.766    13377.773 
   35900    1231.5172   -10951.259            0   -10569.371    13392.645 
   36000    1228.2165   -10953.979            0   -10573.115    13356.751 
   36100    1192.9352   -10953.802            0   -10583.878    12973.069 
   36200    1212.4079   -10964.058            0   -10588.096    13184.834 
   36300    1184.4163    -10954.46            0   -10587.178    12880.428 
   36400    1176.1351   -10947.512            0   -10582.798     12790.37 
   36500    1210.2046   -10953.182            0   -10577.903    13160.873 
   36600    1215.1649   -10957.544            0   -10580.727    13214.815 
   36700    1180.2569   -10960.459            0   -10594.467    12835.194 
   36800    1165.5644   -10955.974            0   -10594.538    12675.415 
   36900    1211.9279   -10958.061            0   -10582.248    13179.614 
   37000    1213.8781   -10952.352            0   -10575.934    13200.822 
   37100     1211.838    -10948.21            0   -10572.425    13178.636 
   37200    1191.7688   -10947.768            0   -10578.206    12960.385 
   37300    1170.7528   -10954.004            0   -10590.959    12731.838 
   37400    1164.7196   -10950.292            0   -10589.118    12666.227 
   37500    1192.6563   -10947.405            0   -10577.568    12970.036 
   37600     1224.482   -10953.938            0   -10574.233    13316.139 
   37700    1177.5245   -10952.558            0   -10587.413     12805.48 
   37800     1145.656   -10955.791            0   -10600.529    12458.912 
   37900    1181.2908   -10955.995            0   -10589.683    12846.437 
   38000      1182.57   -10945.188            0   -10578.478    12860.349 
   38100    1210.6819   -10946.617            0   -10571.191    13166.064 
   38200    1211.4911   -10942.834            0   -10567.157    13174.863 
   38300    1188.8962   -10941.621            0    -10572.95    12929.146 
   38400    1205.5294   -10962.656            0   -10588.828     13110.03 
   38500    1179.8907   -10956.192            0   -10590.314    12831.211 
   38600    1193.5044   -10951.126            0   -10581.026     12979.26 
   38700    1210.8083   -10948.734            0   -10573.269    13167.438 
   38800    1211.4531   -10950.033            0   -10574.368     13174.45 
   38900    1231.9502   -10963.107            0   -10581.086    13397.355 
   39000    1187.2808   -10958.706            0   -10590.536    12911.579 
   39100     1198.671   -10961.183            0   -10589.481    13035.446 
   39200    1190.2474   -10953.375            0   -10584.285     12943.84 
   39300    1196.8619   -10942.396            0   -10571.256    13015.772 
   39400    1215.3966   -10939.259            0    -10562.37    13217.335 
   39500    1221.9511   -10948.885            0   -10569.964    13288.615 
   39600    1215.9162   -10958.719            0   -10581.669    13222.986 
   39700    1205.8604   -10962.715            0   -10588.783     13113.63 
   39800    1172.2855   -10954.336            0   -10590.816    12748.505 
   39900    1200.3177   -10953.096            0   -10580.883    13053.353 
   40000    1236.6413    -10950.21            0   -10566.734     13448.37 
   40100    1205.6578   -10944.156            0   -10570.288    13111.427 
   40200    1195.5142   -10950.017            0   -10579.294    13001.116 
   40300     1198.687   -10952.567            0    -10580.86     13035.62 
   40400     1201.785   -10951.248            0    -10578.58    13069.311 
   40500    1187.7454   -10950.249            0   -10581.935     12916.63 
   40600    1204.0422   -10953.471            0   -10580.103    13093.857 
   40700    1231.0063    -10955.67            0   -10573.941    13387.089 
   40800     1221.353   -10954.135            0   -10575.399    13282.111 
   40900    1210.5037    -10962.49            0   -10587.119    13164.125 
   41000     1196.426    -10962.48            0   -10591.475    13011.031 
   41100    1205.6097   -10957.278            0   -10583.425    13110.904 
   41200    1198.3433    -10947.26            0   -10575.659    13031.882 
   41300     1190.614    -10945.06            0   -10575.856    12947.827 
   41400    1196.8832   -10945.559            0   -10574.411    13016.004 
   41500    1199.0128   -10947.185            0   -10575.377    13039.163 
   41600    1209.6665   -10956.927            0   -10581.815    13155.021 
   41700    1168.5936   -10956.106            0   -10593.731    12708.357 
   41800    1203.8245   -10968.724            0   -10595.424     13091.49 
   41900    1170.9489   -10944.731            0   -10581.626     12733.97 
   42000    1203.7281   -10946.235            0   -10572.965    13090.442 
   42100    1220.9412   -10950.473            0   -10571.865    13277.632 
   42200    1208.6569   -10943.909            0   -10569.111    13144.042 
   42300    1225.7137   -10951.044            0   -10570.956    13329.533 
   42400    1196.3025   -10956.845            0   -10585.877    13009.688 
   42500    1156.1218   -10948.324            0   -10589.817    12572.727 
   42600    1196.5323   -10951.104            0   -10580.065    13012.187 
   42700    1232.4213   -10957.201            0   -10575.033    13402.477 
   42800    1199.8757   -10952.657            0   -10580.582    13048.547 
   42900    1189.1745   -10951.478            0    -10582.72    12932.172 
   43000    1185.4441   -10947.892            0   -10580.291    12891.605 
   43100    1208.7325   -10951.098            0   -10576.276    13144.864 
   43200    1229.9873   -10946.657            0   -10565.244    13376.008 
   43300    1273.1419    -10948.84            0   -10554.045     13845.31 
   43400    1240.1546   -10954.807            0   -10570.241    13486.577 
   43500    1154.0568   -10937.923            0   -10580.056     12550.27 
   43600    1203.6665   -10958.219            0   -10584.968    13089.772 
   43700    1209.6988   -10957.566            0   -10582.445    13155.372 
   43800    1225.4091    -10953.15            0   -10573.157    13326.221 
   43900    1214.7045   -10945.848            0   -10569.174    13209.809 
   44000    1202.1084   -10955.633            0   -10582.865    13072.827 
   44100     1153.798   -10950.496            0   -10592.709    12547.456 
   44200    1179.8389   -10955.149            0   -10589.287    12830.649 
   44300    1185.3878   -10949.035            0   -10581.452    12890.992 
   44400    1206.7404   -10942.201            0   -10567.997      13123.2 
   44500    1257.3333   -10951.383            0    -10561.49    13673.394 
   44600    1192.0733    -10946.03            0   -10576.374    12963.696 
   44700    1192.6371   -10949.207            0   -10579.376    12969.828 
   44800    1209.6988   -10956.844            0   -10581.722    13155.372 
   44900    1178.9859    -10953.57            0   -10587.973    12821.373 
   45000    1188.4184   -10956.058            0   -10587.535    12923.949 
   45100      1207.17   -10947.116            0   -10572.779    13127.872 
   45200    1208.0784   -10944.154            0   -10569.535    13137.751 
   45300    1230.0609   -10958.688            0   -10577.252    13376.809 
   45400    1157.5635   -10945.594            0   -10586.639    12588.405 
   45500    1192.7311   -10954.896            0   -10585.035     12970.85 
   45600    1201.1919   -10954.955            0   -10582.471     13062.86 
   45700    1212.1932   -10957.542            0   -10581.647    13182.498 
   45800    1201.0918   -10948.152            0     -10575.7    13061.772 
   45900    1232.4367    -10940.74            0   -10558.568    13402.645 
   46000     1244.177   -10949.617            0   -10563.804    13530.319 
   46100    1198.4888   -10950.452            0   -10578.807    13033.465 
   46200    1183.3524   -10949.271            0    -10582.32    12868.857 
   46300    1205.2096   -10952.148            0   -10578.419    13106.553 
   46400    1219.5676   -10947.358            0   -10569.176    13262.695 
   46500     1239.924   -10943.884            0   -10559.389    13484.068 
   46600    1221.2978   -10945.134            0   -10566.415     13281.51 
   46700    1188.3863   -10943.124            0   -10574.611    12923.601 
   46800    1188.5938   -10946.808            0   -10578.231    12925.857 
   46900    1184.4292    -10951.48            0   -10584.195    12880.567 
   47000    1181.4174   -10954.812            0    -10588.46    12847.815 
   47100    1219.6117   -10955.707            0   -10577.511    13263.174 
   47200    1227.2218   -10949.285            0    -10568.73    13345.933 
   47300    1219.4794   -10950.845            0    -10572.69    13261.736 
   47400    1202.9685   -10955.388            0   -10582.353    13082.181 
   47500    1160.2022   -10959.008            0   -10599.235    12617.101 
   47600    1158.6381   -10959.981            0   -10600.693    12600.092 
   47700    1185.6269    -10959.57            0   -10591.913    12893.593 
   47800       1205.4   -10956.645            0   -10582.856    13108.623 
   47900    1204.8003   -10948.627            0   -10575.024    13102.102 
   48000    1223.2077   -10950.098            0   -10570.787    13302.281 
   48100    1161.3748   -10933.666            0   -10573.529    12629.853 
   48200     1199.943    -10949.85            0   -10577.753    13049.279 
   48300    1195.7645   -10960.095            0   -10589.294    13003.838 
   48400    1162.2259   -10956.498            0   -10596.098    12639.109 
   48500    1205.6075   -10961.896            0   -10588.044     13110.88 
   48600    1230.8269   -10960.416            0   -10578.743    13385.138 
   48700    1208.0731   -10950.457            0   -10575.839    13137.693 
   48800    1225.9848    -10954.07            0   -10573.898    13332.481 
   48900    1194.0452   -10950.884            0   -10580.616    12985.141 
   49000    1180.1615   -10955.657            0   -10589.695    12834.157 
   49100    1190.5604   -10957.033            0   -10587.846    12947.244 
   49200    1200.4471   -10951.892            0   -10579.639     13054.76 
   49300    1225.2778   -10955.831            0   -10575.878    13324.792 
   49400    1185.0836   -10947.997            0   -10580.508    12887.684 
   49500    1188.3255     -10959.4            0   -10590.906    12922.939 
   49600    1180.5093   -10962.274            0   -10596.204    12837.938 
   49700    1196.9551   -10964.312            0   -10593.143    13016.785 
   49800    1215.5506   -10953.526            0    -10576.59     13219.01 
   49900    1221.8349   -10952.907            0   -10574.022    13287.351 
   50000    1184.6537   -10943.965            0    -10576.61    12883.009 
Loop time of 17034.6 on 1 procs for 50000 steps with 2400 atoms

Performance: 0.254 ns/day, 94.637 hours/ns, 2.935 timesteps/s
92.0% CPU use with 1 MPI tasks x 1 OpenMP threads

MPI task timing breakdown:
Section |  min time  |  avg time  |  max time  |%varavg| %total
---------------------------------------------------------------
Pair    | 16993      | 16993      | 16993      |   0.0 | 99.76
Neigh   | 33.27      | 33.27      | 33.27      |   0.0 |  0.20
Comm    | 3.3183     | 3.3183     | 3.3183     |   0.0 |  0.02
Output  | 0.016751   | 0.016751   | 0.016751   |   0.0 |  0.00
Modify  | 3.558      | 3.558      | 3.558      |   0.0 |  0.02
Other   |            | 1.065      |            |       |  0.01

Nlocal:        2400.00 ave        2400 max        2400 min
Histogram: 1 0 0 0 0 0 0 0 0 0
Nghost:        5040.00 ave        5040 max        5040 min
Histogram: 1 0 0 0 0 0 0 0 0 0
Neighs:         0.00000 ave           0 max           0 min
Histogram: 1 0 0 0 0 0 0 0 0 0
FullNghs:      269456.0 ave      269456 max      269456 min
Histogram: 1 0 0 0 0 0 0 0 0 0

Total # of neighbors = 269456
Ave neighs/atom = 112.27333
Neighbor list builds = 2187
Dangerous builds = 0

velocity        all scale ${Tsim}
velocity        all scale 1200
unfix           1

#-----------------------------------------
# 2nd equilibration run
compute         ke all ke/atom
variable        temp atom c_ke/1.5

fix             1 all nve

compute         layers all chunk/atom bin/1d z lower 0.05 units reduced # <--- delta z ?
fix             2 all ave/chunk 10 100 1000 layers v_temp file profile.mp # <--- use every 10 steps, 100 times, repeat every 1000 steps
fix             3 all thermal/conductivity 10 z 20 # <--- perform kintic energy swap every 10 steps, using 20 bins

variable        tdiff equal f_2[11][3]-f_2[1][3]
thermo_style    custom step temp epair etotal f_3 v_tdiff
thermo          1000
#thermo_modify   colname f_3 E_delta colname v_tdiff dTemp_step


run 200000
Per MPI rank memory allocation (min/avg/max) = 4.245 | 4.245 | 4.245 Mbytes
Step Temp E_pair TotEng f_3 v_tdiff 
   50000         1200   -10943.964    -10571.85            0            0 
   51000    1205.0944   -10945.573   -10571.879    48.093183  0.024802629 
   52000    1208.7294   -10946.661    -10571.84    91.017021  0.053080134 
   53000    1203.6865   -10945.097   -10571.839    131.79556  0.054323477 
   54000    1190.1072   -10940.889   -10571.842    172.37833  0.063283913 
   55000    1243.0078    -10957.31   -10571.859    212.52727  0.064537598 
   56000    1219.9025   -10950.103   -10571.817    253.10917  0.064948385 
   57000    1203.3128   -10944.961    -10571.82    290.82617  0.063831464 
   58000    1233.7167   -10954.422   -10571.852    330.24092  0.057485498 
   59000    1196.6763   -10942.922   -10571.838     371.0811  0.061938426 
   60000    1212.2289   -10947.741   -10571.835     412.4164  0.064281423 
   61000    1217.1034   -10949.284   -10571.866     449.4553  0.054492803 
   62000    1217.3818   -10949.347   -10571.843    490.55171  0.060881096 
   63000     1214.818   -10948.584   -10571.875    528.50947  0.059160681 
   64000    1205.1549   -10945.565   -10571.853     567.0028   0.05909338 
   65000     1216.396   -10949.057   -10571.858    606.25524  0.063007474 
   66000    1228.9999    -10952.96   -10571.853    644.16749  0.066298516 
   67000    1213.5895   -10948.175   -10571.847    681.98523  0.060831612 
   68000    1218.9579   -10949.844   -10571.851    723.77455  0.063945136 
   69000    1257.2648   -10961.734   -10571.863    762.64173  0.065756254 
   70000     1204.168   -10945.239   -10571.833    803.03296  0.061289526 
   71000    1215.5094   -10948.762   -10571.838     843.8209  0.063331371 
   72000    1222.5938   -10950.978   -10571.857     884.4342  0.064688827 
   73000    1182.1473   -10938.411   -10571.833    926.57363  0.057935838 
   74000    1184.3652   -10939.125   -10571.859    966.72564  0.059036004 
   75000    1208.6662   -10946.665   -10571.864    1006.2807   0.06408834 
   76000    1213.3216   -10948.085    -10571.84    1043.6637  0.061602369 
   77000    1219.0992   -10949.866    -10571.83    1082.6193  0.061780894 
   78000     1216.763   -10949.172    -10571.86    1123.9235  0.065659873 
   79000    1224.0685   -10951.432   -10571.854    1164.3035  0.068407517 
   80000    1237.0955   -10955.473   -10571.855    1205.2648  0.063765303 
   81000    1182.3048   -10938.479   -10571.853    1242.9896  0.064051181 
   82000    1212.5155   -10947.854   -10571.858    1283.0357  0.063199724 
   83000     1214.511    -10948.47   -10571.856    1323.4026  0.065648637 
   84000    1229.6162   -10953.165   -10571.867    1363.0148  0.061897887 
   85000    1190.9116   -10941.133   -10571.837    1402.2037  0.062639691 
   86000    1213.4584   -10948.167    -10571.88    1442.4805  0.064932035 
   87000    1205.1051   -10945.552   -10571.855    1481.6268  0.062270417 
   88000    1222.4274   -10950.943   -10571.875    1520.6554  0.062303214 
   89000    1211.5882   -10947.586   -10571.878    1560.7829  0.064382995 
   90000    1201.9025   -10944.595   -10571.891    1599.7028    0.0640962 
   91000    1191.3816   -10941.319   -10571.878    1638.1688  0.063825205 
   92000    1192.2923   -10941.612   -10571.888    1679.2145  0.058532483 
   93000     1218.442   -10949.739   -10571.906    1719.9376  0.066881257 
   94000    1237.8718   -10955.771   -10571.913    1760.8141  0.060680483 
   95000    1229.4792   -10953.169   -10571.913    1801.9195    0.0606258 
   96000    1229.1264   -10953.063   -10571.917    1842.4793  0.061016084 
   97000    1205.5639   -10945.751   -10571.912    1883.1939  0.067441443 
   98000    1230.7311   -10953.578   -10571.934    1921.8035  0.070559095 
   99000    1243.6477   -10957.614   -10571.965    1960.3172  0.069603269 
  100000    1221.6929   -10950.766   -10571.925    1997.7728  0.065557946 
  101000    1189.2064   -10940.674   -10571.907    2037.2508  0.064737921 
  102000    1228.2978   -10952.842   -10571.953    2079.8052  0.060406529 
  103000    1193.9736   -10942.193   -10571.948    2118.6307  0.058640538 
  104000    1243.4162   -10957.518    -10571.94    2156.5049  0.059985748 
  105000    1219.0181   -10949.938   -10571.927    2194.9741  0.063079499 
  106000     1225.878   -10952.084   -10571.945     2236.707  0.067483263 
  107000    1200.1779   -10944.112   -10571.943     2276.862  0.064359855 
  108000    1232.7136   -10954.204   -10571.946    2316.2445  0.065230894 
  109000    1220.3697   -10950.366   -10571.936     2357.288  0.068319084 
  110000    1195.6155   -10942.668   -10571.913     2395.941  0.069668385 
  111000    1231.1081   -10953.694   -10571.934    2435.3968  0.059616829 
  112000    1203.2119   -10945.058   -10571.948    2475.2191  0.059284391 
  113000    1201.4506   -10944.509   -10571.945    2516.0757  0.059571387 
  114000    1194.9074   -10942.473   -10571.938    2554.6408  0.067481053 
  115000    1230.3255   -10953.462   -10571.944    2594.4198  0.069670413 
  116000    1200.7623   -10944.282   -10571.932    2636.3253  0.065790934 
  117000    1221.3385   -10950.679   -10571.948    2675.5877    0.0654376 
  118000    1181.4547   -10938.309   -10571.945    2716.8814   0.06261502 
  119000    1221.3516   -10950.682   -10571.947    2757.5571  0.066610517 
  120000    1229.5309   -10953.233   -10571.962     2794.322  0.058675073 
  121000    1231.0661   -10953.688    -10571.94     2833.432  0.060052497 
  122000    1216.9863   -10949.317   -10571.936    2874.7623  0.061495195 
  123000    1232.3358   -10954.083   -10571.942    2917.1214  0.058328458 
  124000      1223.06   -10951.185    -10571.92    2957.7291  0.068306724 
  125000    1233.8658   -10954.521   -10571.906    2997.2001  0.069874313 
  126000    1195.1462   -10942.533   -10571.924    3037.0997   0.06153182 
  127000    1216.9737   -10949.304   -10571.926    3077.9484  0.055356207 
  128000    1201.1018    -10944.38   -10571.924    3118.8205  0.059319352 
  129000    1216.7505    -10949.25   -10571.942    3160.4721  0.063929145 
  130000    1231.7117   -10953.898   -10571.951    3200.7542  0.066282352 
  131000     1202.148   -10944.722   -10571.942    3240.4426  0.065147304 
  132000    1215.7628   -10948.938   -10571.936     3281.198  0.062613502 
  133000     1223.588    -10951.38   -10571.951    3321.9133  0.069054215 
  134000    1202.0867   -10944.699   -10571.938    3362.4061  0.063540808 
  135000    1223.9291   -10951.489   -10571.955    3401.7344  0.065960633 
  136000    1224.1233   -10951.558   -10571.963    3443.9322  0.063709672 
  137000    1183.6059   -10938.993   -10571.963      3481.69  0.063984581 
  138000    1217.4592   -10949.492   -10571.964    3520.6289  0.058545734 
  139000    1211.7242   -10947.703   -10571.953    3558.6103  0.065603497 
  140000    1221.4486   -10950.712   -10571.947    3596.9861  0.060559127 
  141000    1205.1603   -10945.668   -10571.954    3637.0219   0.05773642 
  142000    1213.8139   -10948.349   -10571.951     3678.989  0.064180569 
  143000    1213.2848   -10948.198   -10571.965    3720.7679  0.058678984 
  144000    1199.3737   -10943.871   -10571.951    3761.1308  0.060542894 
  145000    1244.0337   -10957.732   -10571.964    3800.8985  0.064627756 
  146000    1202.3548   -10944.764   -10571.919    3840.7058  0.063605313 
  147000     1242.331   -10957.214   -10571.973    3879.6536  0.058742887 
  148000    1195.4732   -10942.656   -10571.946    3917.0684  0.062043693 
  149000    1207.6864   -10946.447    -10571.95    3958.0822  0.060389064 
  150000    1244.0105   -10957.726   -10571.964    3998.4826  0.067011153 
  151000    1208.1366   -10946.601   -10571.963    4038.2821   0.06968499 
  152000    1219.6451   -10950.158   -10571.952    4078.7674  0.066689221 
  153000    1217.2896   -10949.433   -10571.957    4118.4803  0.058044539 
  154000    1193.2067   -10941.978    -10571.97    4158.0389   0.05472853 
  155000    1201.3152   -10944.463   -10571.941     4199.745  0.058570948 
  156000    1209.7272   -10947.099   -10571.968    4240.6558  0.063807393 
  157000    1199.9596   -10944.063   -10571.962    4280.0165  0.062989853 
  158000    1213.0229   -10948.135   -10571.982    4320.3237  0.060829131 
  159000    1215.8154   -10948.988    -10571.97    4359.7078   0.06499988 
  160000    1219.9384    -10950.28   -10571.983    4402.1743  0.057167881 
  161000    1248.8467    -10959.26   -10571.999    4440.0238  0.066520499 
  162000    1212.3537   -10947.945       -10572    4482.1301  0.063013232 
  163000    1218.0221    -10949.68   -10571.977    4521.8426  0.064957639 
  164000    1207.1522   -10946.323   -10571.991    4560.7518  0.064888608 
  165000    1193.1781   -10941.978   -10571.979    4600.0554  0.053587231 
  166000    1199.9461   -10944.086   -10571.989    4638.9969  0.060551025 
  167000    1208.3961   -10946.692   -10571.975    4678.9243  0.064059523 
  168000     1207.743     -10946.5   -10571.985     4717.075  0.060689942 
  169000    1229.2447   -10953.163    -10571.98    4754.5514  0.069964705 
  170000    1204.1212   -10945.368   -10571.976    4795.3854  0.067416976 
  171000    1224.6456   -10951.738   -10571.982    4835.7302  0.063573258 
  172000    1242.3279   -10957.228   -10571.988     4875.503   0.06029726 
  173000    1199.2271   -10943.828   -10571.954    4915.6284  0.066258368 
  174000    1238.9959    -10956.19   -10571.984     4956.189  0.061077774 
  175000    1236.2785    -10955.34   -10571.976    4995.4673  0.066096399 
  176000     1238.768   -10956.103   -10571.967    5034.6729    0.0564224 
  177000    1245.4714   -10958.186   -10571.971    5074.9732  0.060569898 
  178000    1190.9155   -10941.246   -10571.949    5116.4918  0.062386483 
  179000     1203.477   -10945.142   -10571.949    5157.9703  0.057156953 
  180000    1199.3605   -10943.845   -10571.929    5197.3402  0.066233809 
  181000    1219.0262   -10949.979   -10571.964    5237.3972  0.061291361 
  182000    1174.2252   -10936.069   -10571.948    5279.0411  0.062145517 
  183000    1226.4011   -10952.258   -10571.957    5318.0435  0.063947894 
  184000    1221.2176   -10950.644    -10571.95    5357.6183  0.053869631 
  185000     1225.426   -10951.958   -10571.959    5396.2703  0.070072278 
  186000    1225.7349   -10952.034    -10571.94    5437.2995  0.065525636 
  187000    1227.4443   -10952.582   -10571.958    5476.0334  0.063813036 
  188000    1229.9446   -10953.354   -10571.955     5516.586  0.063057074 
  189000    1202.5904   -10944.856   -10571.939    5555.6881  0.065582138 
  190000    1219.3892   -10950.066    -10571.94    5594.8756  0.061430733 
  191000    1203.3463   -10945.082    -10571.93    5636.7876  0.059422425 
  192000    1220.1887   -10950.304   -10571.929    5675.1037  0.073256446 
  193000    1207.8271   -10946.479   -10571.938     5713.984  0.065415944 
  194000    1219.2715   -10950.027   -10571.937    5755.0048  0.067431198 
  195000    1199.7283   -10943.952   -10571.922    5795.5021  0.063670004 
  196000     1235.633   -10955.127   -10571.963    5834.6631  0.060986557 
  197000    1196.0442   -10942.833   -10571.946    5875.7403  0.062485967 
  198000    1215.1515   -10948.746   -10571.934    5914.3826  0.072920705 
  199000    1224.0879   -10951.525   -10571.942    5952.4238  0.064622186 
  200000     1208.152   -10946.585   -10571.943    5992.2207  0.066947659 
  201000    1187.0011   -10940.011   -10571.928    6032.7701  0.060729637 
  202000    1201.3721   -10944.479   -10571.939    6070.7948  0.057217145 
  203000    1225.3242   -10951.917    -10571.95    6110.9554  0.065928221 
  204000    1212.2796   -10947.867   -10571.945    6150.4281  0.061529751 
  205000    1222.7961   -10951.146   -10571.963    6191.6895  0.065838455 
  206000    1195.2297   -10942.572   -10571.937    6232.1128  0.066046914 
  207000    1234.4576   -10954.756   -10571.957     6270.825  0.060691385 
  208000    1212.5576   -10947.978   -10571.969    6313.6053  0.060692816 
  209000    1190.7188   -10941.185   -10571.949    6354.9422  0.055831458 
  210000    1200.9446   -10944.354   -10571.947    6396.2434  0.062916611 
  211000    1260.2698   -10962.792   -10571.989    6434.4955  0.063754406 
  212000    1234.3111   -10954.735   -10571.982     6474.637  0.066095335 
  213000    1224.9456   -10951.851   -10572.001     6516.272  0.065084491 
  214000    1205.5378   -10945.805   -10571.973     6556.064  0.065048192 
  215000    1226.7239   -10952.384   -10571.983    6598.6576   0.05719558 
  216000    1210.7577    -10947.45       -10572    6638.3075  0.066065755 
  217000    1215.7294   -10948.972    -10571.98    6675.3283  0.065066012 
  218000    1205.1274   -10945.708   -10572.004    6716.4253  0.062725439 
  219000    1199.0535   -10943.812   -10571.992    6756.6321  0.065168147 
  220000    1235.4956   -10955.124   -10572.003    6797.2697  0.062207703 
  221000    1199.0078   -10943.804   -10571.997    6837.3478  0.070084228 
  222000    1216.6825   -10949.305   -10572.017    6877.8459  0.068821346 
  223000    1247.4476   -10958.859   -10572.032    6920.6958  0.065058638 
  224000    1225.7558   -10952.121    -10572.02    6959.6724  0.063340318 
  225000    1224.4555   -10951.721   -10572.023    7002.8737  0.062655011 
  226000    1214.3908   -10948.566    -10571.99    7044.3393  0.065777238 
  227000    1222.0824   -10950.974   -10572.012    7086.3387   0.06392355 
  228000    1228.4495   -10952.941   -10572.005    7125.4709   0.06714609 
  229000    1197.0889    -10943.22   -10572.008    7164.1281  0.071011519 
  230000    1203.2145   -10945.106   -10571.996    7203.9734  0.063709631 
  231000    1238.6522   -10956.131   -10572.031    7244.6365  0.063011852 
  232000    1219.8008   -10950.265    -10572.01    7284.9793  0.061317518 
  233000    1193.6825   -10942.153   -10571.998    7325.4421  0.063542255 
  234000    1207.9375   -10946.587   -10572.011    7366.0295  0.065388263 
  235000    1196.9554   -10943.198   -10572.028    7407.1538  0.066542588 
  236000    1224.6385   -10951.768   -10572.013    7448.1415  0.066987779 
  237000     1215.459   -10948.932   -10572.024    7486.8338  0.058598071 
  238000    1227.1846   -10952.577   -10572.033    7525.3786  0.068879164 
  239000    1236.0532   -10955.319   -10572.025    7563.8393  0.065387925 
  240000    1192.4689   -10941.784   -10572.005    7605.2602  0.064108874 
  241000    1207.5541   -10946.485   -10572.029    7645.8481  0.063900121 
  242000    1198.7779   -10943.777   -10572.042    7687.9139  0.064278194 
  243000    1225.2598   -10951.999   -10572.052    7728.0396  0.063846385 
  244000    1196.9975   -10943.223    -10572.04    7769.8042  0.058523995 
  245000    1201.0365   -10944.501   -10572.065    7809.7235  0.065822655 
  246000    1210.9096   -10947.553   -10572.056    7848.9785   0.06059178 
  247000    1208.9001   -10946.926   -10572.052    7890.4627  0.066801493 
  248000    1232.3023   -10954.202   -10572.071    7930.7306   0.05958363 
  249000    1212.9887   -10948.201   -10572.059    7970.8568  0.063814595 
  250000    1201.9685   -10944.786   -10572.062    8010.7837  0.064310341 
Loop time of 58122.7 on 1 procs for 200000 steps with 2400 atoms

Performance: 0.297 ns/day, 80.726 hours/ns, 3.441 timesteps/s
93.8% CPU use with 1 MPI tasks x 1 OpenMP threads

MPI task timing breakdown:
Section |  min time  |  avg time  |  max time  |%varavg| %total
---------------------------------------------------------------
Pair    | 57966      | 57966      | 57966      |   0.0 | 99.73
Neigh   | 128.47     | 128.47     | 128.47     |   0.0 |  0.22
Comm    | 12.94      | 12.94      | 12.94      |   0.0 |  0.02
Output  | 0.0062567  | 0.0062567  | 0.0062567  |   0.0 |  0.00
Modify  | 10.679     | 10.679     | 10.679     |   0.0 |  0.02
Other   |            | 4.103      |            |       |  0.01

Nlocal:        2400.00 ave        2400 max        2400 min
Histogram: 1 0 0 0 0 0 0 0 0 0
Nghost:        5143.00 ave        5143 max        5143 min
Histogram: 1 0 0 0 0 0 0 0 0 0
Neighs:         0.00000 ave           0 max           0 min
Histogram: 1 0 0 0 0 0 0 0 0 0
FullNghs:      269664.0 ave      269664 max      269664 min
Histogram: 1 0 0 0 0 0 0 0 0 0

Total # of neighbors = 269664
Ave neighs/atom = 112.36000
Neighbor list builds = 9241
Dangerous builds = 0

#------------------------------------------
# thermal conductivity calculation
fix             3 all thermal/conductivity 10 z 20

variable start_time equal time
variable kappa equal (f_3/(time-${start_time})/(lx*ly)/2.0)*(lz/2.0)/f_ave
variable kappa equal (f_3/(time-250)/(lx*ly)/2.0)*(lz/2.0)/f_ave

fix             ave all ave/time 1 1 1000 v_tdiff ave running
thermo_style    custom step temp epair etotal f_3 v_tdiff f_ave

run 200000
Per MPI rank memory allocation (min/avg/max) = 4.499 | 4.499 | 4.499 Mbytes
Step Temp E_pair TotEng f_3 v_tdiff f_ave 
  250000    1201.9685    -10944.78   -10572.056            0  0.064310341  0.064310341 
  251000    1242.3672   -10957.322    -10572.07    39.491641  0.061970297  0.063140319 
  252000    1237.5471   -10955.848    -10572.09    79.806728  0.061824439  0.062701692 
  253000    1216.7693   -10949.379   -10572.065    121.26983  0.062765812  0.062717722 
  254000    1224.5859   -10951.782   -10572.044    162.22704  0.060828754  0.062339928 
  255000     1219.508   -10950.252   -10572.089    201.74428   0.06548401  0.062863942 
  256000    1246.9954   -10958.779   -10572.092    240.96518  0.071348172  0.064075975 
  257000    1228.3529   -10952.971   -10572.064    279.91605  0.066257709  0.064348692 
  258000     1201.862   -10944.753   -10572.061    319.13613  0.061527333  0.064035207 
  259000    1187.5459   -10940.322    -10572.07    358.53021   0.06432783   0.06406447 
  260000    1206.9151   -10946.342   -10572.083    399.20968  0.065720198   0.06421499 
  261000    1215.0556   -10948.872   -10572.089    439.49826   0.06331383  0.064139894 
  262000    1196.8569   -10943.218   -10572.078    478.68432  0.064203523  0.064144788 
  263000    1211.4601   -10947.757   -10572.089    519.15115  0.060109656  0.063856564 
  264000    1227.7002   -10952.787   -10572.083    559.81938  0.058764828  0.063517115 
  265000    1206.8417   -10946.334   -10572.098    598.94768  0.065276481  0.063627076 
  266000    1212.0209   -10947.927   -10572.085    638.38687  0.068641946  0.063922068 
  267000    1204.7834   -10945.707    -10572.11    676.09361  0.065381914  0.064003171 
  268000    1207.8391   -10946.644   -10572.099    716.77819  0.064501757  0.064029412 
  269000     1206.326   -10946.168   -10572.092    755.72418   0.06309401  0.063982642 
  270000    1220.5861   -10950.603   -10572.105    796.69014  0.062326032  0.063903756 
  271000    1195.7494   -10942.892   -10572.096    836.92582  0.065352222  0.063969595 
  272000    1222.5179   -10951.178   -10572.081    877.44771  0.062914983  0.063923742 
  273000     1230.434   -10953.634   -10572.082    915.83369  0.066465035   0.06402963 
  274000    1238.7936   -10956.243   -10572.099    953.02847   0.06176422  0.063939013 
  275000    1222.8927   -10951.285   -10572.072    994.31704  0.060824779  0.063819235 
  276000      1243.39   -10957.647   -10572.078    1034.9102  0.064507473  0.063844725 
  277000    1207.5665   -10946.522   -10572.062    1073.9462  0.059993865  0.063707194 
  278000    1201.7595   -10944.731   -10572.072    1114.9891  0.059176415  0.063550961 
  279000    1194.3653   -10942.436   -10572.069     1154.987  0.061985477  0.063498778 
  280000    1185.5995   -10939.708   -10572.059    1196.1749  0.056824491  0.063283478 
  281000    1203.3179   -10945.195   -10572.052    1236.9767  0.058347242  0.063129221 
  282000     1209.718   -10947.188   -10572.061    1276.3359  0.058815553  0.062998504 
  283000     1182.833   -10938.848   -10572.057    1315.5157  0.065303166  0.063066288 
  284000    1220.5037   -10950.531   -10572.059    1353.8022  0.067746073  0.063199996 
  285000    1217.0105   -10949.451   -10572.062    1395.0899  0.065745997  0.063270718 
  286000     1193.141   -10942.053   -10572.066     1434.608   0.07408739  0.063563061 
  287000    1213.9406    -10948.52   -10572.083    1474.7598  0.067966168  0.063678932 
  288000    1211.3334   -10947.688   -10572.059    1514.7166  0.072401593   0.06390259 
  289000    1231.2133   -10953.895   -10572.101     1554.313  0.066892204   0.06397733 
  290000    1239.0797   -10956.327   -10572.095    1593.8289  0.067538223  0.064064181 
  291000    1226.4702   -10952.418   -10572.096    1631.2278  0.065970653  0.064109574 
  292000    1213.5149     -10948.4   -10572.095    1671.0511  0.065292024  0.064137072 
  293000    1199.5756   -10944.062    -10572.08    1710.4389  0.057384679  0.063983609 
  294000    1205.7272   -10945.973   -10572.083    1748.8884  0.062726844  0.063955681 
  295000    1217.6029    -10949.66   -10572.087    1788.3763   0.06489007  0.063975994 
  296000    1194.3883   -10942.448   -10572.074    1826.9409  0.064425375  0.063985555 
  297000    1234.4762   -10954.881   -10572.076    1867.9389  0.068659356  0.064082926 
  298000    1228.6933   -10953.111     -10572.1    1908.1854   0.06199685  0.064040353 
  299000    1236.2711   -10955.452   -10572.091    1949.1919  0.066000804  0.064079562 
  300000    1196.4266   -10943.108   -10572.102    1987.3882  0.068834618  0.064172798 
  301000    1211.5193   -10947.777   -10572.091    2025.8285  0.071589397  0.064315425 
  302000    1217.7724   -10949.713   -10572.088    2064.7013  0.060288139  0.064239439 
  303000    1216.3952   -10949.293   -10572.095    2105.6652  0.056330134   0.06409297 
  304000    1209.0116   -10946.958   -10572.049    2146.0303  0.063412517  0.064080598 
  305000    1236.3087    -10955.46   -10572.087    2185.4346  0.066091895  0.064116514 
  306000    1186.4042   -10939.972   -10572.074     2223.798   0.06092237  0.064060477 
  307000    1230.4323   -10953.652   -10572.101    2265.4328  0.057640107  0.063949781 
  308000    1214.6207    -10948.71   -10572.062    2307.1113  0.061472263  0.063907789 
  309000    1198.7421   -10943.812   -10572.087    2345.7798  0.065741702  0.063938354 
  310000     1228.046   -10952.889   -10572.078    2384.9829  0.059283354  0.063862042 
  311000    1206.0132   -10946.072   -10572.094    2424.3447  0.059749664  0.063795714 
  312000    1220.9241   -10950.684   -10572.081    2466.5035  0.056411533  0.063678505 
  313000    1210.9191   -10947.572   -10572.072    2505.8172  0.062867044  0.063665825 
  314000    1205.4427   -10945.883   -10572.081    2546.2637  0.064451549  0.063677914 
  315000    1226.5357   -10952.426   -10572.083    2586.7295  0.070074937  0.063774838 
  316000    1215.2154   -10948.929   -10572.096    2624.7595  0.066951475  0.063822251 
  317000    1207.8074   -10946.647   -10572.112    2664.8698  0.058523654   0.06374433 
  318000    1190.6508   -10941.315     -10572.1    2704.2764  0.069333024  0.063825326 
  319000    1207.5564   -10946.556   -10572.098    2744.5724  0.066821867  0.063868133 
  320000    1221.5228   -10950.911   -10572.123    2786.1102  0.057959945  0.063784919 
  321000    1214.7747   -10948.799   -10572.103    2825.8391  0.063880822  0.063786251 
  322000    1226.8327   -10952.561   -10572.126    2863.4235   0.06117428  0.063750471 
  323000    1226.6686   -10952.493   -10572.109     2904.268   0.06395895  0.063753288 
  324000    1212.4812   -10948.091   -10572.106    2942.9513  0.060487107  0.063709739 
  325000    1227.2253   -10952.674   -10572.117    2985.0517  0.062044834  0.063687833 
  326000    1233.0527   -10954.463   -10572.099    3026.1648  0.066781441  0.063728009 
  327000    1200.8822   -10944.492   -10572.105     3065.186   0.07211915  0.063835588 
  328000    1213.6799   -10948.442   -10572.086    3102.7406  0.064907697  0.063849159 
  329000    1199.9907   -10944.203   -10572.092    3140.1086  0.065279258  0.063867035 
  330000    1225.0569   -10951.987   -10572.103    3180.1875  0.064059867  0.063869416 
  331000    1231.5133   -10953.988   -10572.102    3219.6233  0.064523117  0.063877388 
  332000    1242.8384     -10957.5   -10572.102    3259.5818  0.066611282  0.063910326 
  333000    1208.3772   -10946.803   -10572.091    3299.7957  0.062240112  0.063890443 
  334000     1229.305    -10953.29   -10572.089    3338.8768  0.063634376   0.06388743 
  335000    1228.2571   -10952.986    -10572.11    3379.3139  0.068248478   0.06393814 
  336000    1212.0456   -10947.935   -10572.085    3418.8326  0.057094451  0.063859477 
  337000    1212.9213   -10948.207   -10572.086    3460.5967   0.05825689  0.063795811 
  338000    1233.0271   -10954.445    -10572.09     3500.405  0.062408203   0.06378022 
  339000    1206.1594   -10946.113   -10572.089    3541.5295  0.065785166  0.063802497 
  340000    1213.1662     -10948.3   -10572.103    3580.4975   0.06514522  0.063817253 
  341000    1210.1235   -10947.345   -10572.091    3620.3672  0.064025281  0.063819514 
  342000    1190.5461   -10941.266   -10572.083    3659.8332  0.062862493  0.063809223 
  343000     1202.159   -10944.863    -10572.08    3700.4908   0.06776544  0.063851311 
  344000    1205.4099   -10945.892     -10572.1    3738.3965  0.064532034  0.063858476 
  345000    1229.7773   -10953.457   -10572.109    3776.1696  0.059738664  0.063815561 
  346000    1214.0701   -10948.562   -10572.084     3818.528  0.063702421  0.063814395 
  347000    1232.0387   -10954.149     -10572.1    3856.4284  0.063958133  0.063815862 
  348000    1215.6356   -10949.046   -10572.083    3899.1869  0.060703412  0.063784423 
  349000    1191.8431   -10941.679   -10572.094    3939.5962  0.055650114   0.06370308 
  350000    1223.9787   -10951.654   -10572.105    3980.1506  0.066601145  0.063731773 
  351000    1246.2665   -10958.564   -10572.103    4020.5438  0.070961667  0.063802655 
  352000    1213.0996   -10948.282   -10572.106    4060.0938  0.064843868  0.063812764 
  353000    1215.9084   -10949.169   -10572.122     4100.401  0.065908547  0.063832915 
  354000    1212.0129   -10947.943   -10572.104     4139.236  0.066291819  0.063856334 
  355000    1202.7049    -10945.06   -10572.107    4179.1445  0.065345137  0.063870379 
  356000    1221.6679   -10950.934     -10572.1    4221.4696  0.060677864  0.063840542 
  357000    1213.7873   -10948.508   -10572.118    4262.3293  0.067131032   0.06387101 
  358000    1232.1662   -10954.204   -10572.115    4304.6101   0.06355745  0.063868133 
  359000    1212.4878   -10948.095   -10572.108    4343.5748   0.06473753  0.063876037 
  360000    1208.8158   -10946.957   -10572.109    4383.8278  0.067166045  0.063905676 
  361000    1202.3726   -10944.976   -10572.126    4424.1106  0.057406641  0.063847649 
  362000    1231.8588   -10954.123    -10572.13    4463.9646  0.062433278  0.063835133 
  363000    1222.0575   -10951.097   -10572.143    4503.2889  0.061549165   0.06381508 
  364000    1207.6263   -10946.611   -10572.132    4542.6732  0.062974383   0.06380777 
  365000    1224.1997   -10951.752   -10572.134    4583.6925  0.064388305  0.063812775 
  366000     1222.727   -10951.298   -10572.136    4625.0471  0.060831498  0.063787294 
  367000    1204.3002   -10945.566   -10572.119    4666.0235  0.063664559  0.063786253 
  368000    1205.1478   -10945.851    -10572.14    4706.7803  0.060745545  0.063760701 
  369000     1229.817   -10953.525   -10572.165    4746.8809  0.056101534  0.063696875 
  370000    1219.3401   -10950.259   -10572.147    4789.7473  0.057090034  0.063642273 
  371000    1220.4909   -10950.628    -10572.16    4831.0436  0.062423925  0.063632286 
  372000    1223.6937   -10951.641   -10572.179    4873.2255  0.063968126  0.063635017 
  373000    1223.7641   -10951.654   -10572.171    4912.5561  0.058300361  0.063591995 
  374000    1223.8723   -10951.659   -10572.142    4950.0647  0.070378636  0.063646289 
  375000     1206.754   -10946.359   -10572.151    4990.6899  0.061415741  0.063628586 
  376000    1227.3388   -10952.736   -10572.145    5031.2354   0.06120523  0.063609504 
  377000    1230.6472   -10953.779   -10572.162     5070.626  0.066235445  0.063630019 
  378000    1205.1806   -10945.891    -10572.17    5111.1908  0.067233717  0.063657955 
  379000    1202.7041   -10945.119   -10572.167    5153.5744  0.064476724  0.063664253 
  380000     1212.749   -10948.228    -10572.16    5194.3433  0.062394797  0.063654563 
  381000    1192.0901    -10941.85   -10572.188    5236.3111  0.064429998  0.063660437 
  382000    1193.1579   -10942.177   -10572.184    5275.4995  0.064033048  0.063663239 
  383000    1218.0738   -10949.909    -10572.19     5316.132  0.066890397  0.063687322 
  384000    1204.2984   -10945.628   -10572.181     5355.224  0.066527013  0.063708357 
  385000    1193.2666   -10942.208   -10572.182    5394.8342  0.067554571  0.063736638 
  386000    1206.8673   -10946.418   -10572.174    5433.4745   0.06352315   0.06373508 
  387000    1221.4435   -10950.939   -10572.176    5474.9794  0.054020371  0.063664683 
  388000    1226.5794   -10952.558   -10572.201    5517.9324  0.059757412  0.063636573 
  389000     1215.587   -10949.135   -10572.187    5555.9927  0.054600559   0.06357203 
  390000    1220.7894   -10950.753   -10572.192    5597.1011  0.055173552  0.063512467 
  391000    1233.3313   -10954.642   -10572.192    5636.1924  0.069410475  0.063554002 
  392000    1196.2388   -10943.112   -10572.165    5675.8493  0.063486043  0.063553527 
  393000    1204.1536   -10945.593   -10572.191    5716.0519  0.067908945  0.063583773 
  394000    1197.1078   -10943.406   -10572.189    5756.3279  0.060990492  0.063565888 
  395000    1212.0399   -10948.055   -10572.207    5795.7443   0.06806321  0.063596691 
  396000    1229.2466     -10953.4   -10572.217    5836.0609  0.061752192  0.063584144 
  397000    1233.5999   -10954.761   -10572.227    5876.6655  0.062969348   0.06357999 
  398000     1220.936   -10950.827   -10572.221    5915.6356  0.062140221  0.063570327 
  399000     1209.053   -10947.141   -10572.219    5956.0538  0.065085235  0.063580426 
  400000    1201.0803   -10944.659    -10572.21    5996.0337  0.065901514  0.063595798 
  401000    1196.9128   -10943.369   -10572.212    6034.1496   0.06292731    0.0635914 
  402000     1224.132   -10951.821   -10572.224    6073.8197  0.066178406  0.063608308 
  403000    1191.3838   -10941.655   -10572.213    6113.7386  0.065151007  0.063618326 
  404000    1217.7455   -10949.826   -10572.209    6153.7394  0.072510657  0.063675696 
  405000    1186.7026   -10940.197   -10572.207    6192.8478  0.067262739   0.06369869 
  406000    1225.7022   -10952.301   -10572.217    6232.1729  0.068006809   0.06372613 
  407000    1210.1789     -10947.5   -10572.229    6269.9673  0.070238424  0.063767347 
  408000    1236.8621   -10955.777   -10572.232    6309.2278  0.064860592  0.063774223 
  409000    1212.1222   -10948.107   -10572.234    6348.4817  0.068651278  0.063804704 
  410000    1221.4839    -10950.99   -10572.214    6388.9611  0.059163164  0.063775875 
  411000    1228.7083   -10953.242   -10572.226    6429.2951  0.057445555  0.063736799 
  412000    1204.2266   -10945.635    -10572.21    6469.9266  0.057696005  0.063699739 
  413000    1200.6636   -10944.556   -10572.236    6509.1515  0.065243358  0.063709151 
  414000    1207.5201   -10946.663   -10572.217    6551.2785  0.062162316  0.063699776 
  415000    1216.1199   -10949.327   -10572.214    6591.4361   0.06571106  0.063711892 
  416000     1200.982   -10944.632   -10572.213    6629.6961  0.071836563  0.063760543 
  417000    1214.5944   -10948.878   -10572.238    6667.2799  0.065414906  0.063770391 
  418000    1201.2686    -10944.72   -10572.212    6706.0977  0.070528748  0.063810381 
  419000    1251.0545   -10960.163   -10572.217    6745.5604  0.064134517  0.063812288 
  420000    1215.7821   -10949.218    -10572.21    6788.3717  0.065351216  0.063821287 
  421000    1242.7952   -10957.605   -10572.221    6828.9636  0.060605043  0.063802588 
  422000    1216.7506   -10949.522   -10572.214    6869.4864  0.064367547  0.063805854 
  423000    1206.0806   -10946.228   -10572.228    6908.4999  0.066255186   0.06381993 
  424000    1185.1081   -10939.716    -10572.22      6946.97  0.070456065  0.063857851 
  425000    1221.3653   -10950.966   -10572.226    6983.0799  0.063626778  0.063856538 
  426000    1218.5268   -10950.077   -10572.218    7020.8636  0.058989786  0.063829042 
  427000    1226.9356   -10952.693   -10572.227    7061.2937  0.052670135  0.063766352 
  428000    1231.7653    -10954.18   -10572.215    7100.2846   0.05558107  0.063720624 
  429000    1223.0942   -10951.501   -10572.225     7142.073  0.063983048  0.063722082 
  430000    1225.8418   -10952.348    -10572.22     7182.123   0.05850852  0.063693278 
  431000    1200.5768   -10944.533    -10572.24    7223.6221  0.057882113  0.063661348 
  432000    1204.2061   -10945.616   -10572.198    7265.2436  0.060475596   0.06364394 
  433000    1223.1101   -10951.503   -10572.223    7305.7988  0.069166309  0.063673953 
  434000    1219.4106   -10950.337   -10572.204    7345.6033  0.065709161  0.063684954 
  435000    1205.6376   -10946.058   -10572.195    7386.1508   0.06133779  0.063672335 
  436000     1196.951    -10943.35   -10572.181    7423.9716  0.065619668  0.063682748 
  437000    1190.7246   -10941.447   -10572.209    7463.5825  0.060340224  0.063664969 
  438000    1212.4486   -10948.158   -10572.184    7504.4722  0.061539555  0.063653723 
  439000    1197.4122   -10943.518   -10572.206    7542.2425  0.058168246  0.063624852 
  440000    1233.8455   -10954.831   -10572.222    7581.7039  0.057569937  0.063593151 
  441000    1207.0351   -10946.489   -10572.194    7622.6618  0.054188498  0.063544169 
  442000    1239.0429   -10956.413   -10572.192    7662.9363  0.057153022  0.063511054 
  443000    1229.6088   -10953.513   -10572.217    7700.6696  0.063528177  0.063511142 
  444000    1237.0911   -10955.797   -10572.181    7739.8886  0.062704785  0.063507007 
  445000    1203.4825   -10945.401   -10572.207    7780.6705  0.064832261  0.063513768 
  446000    1210.5195   -10947.569   -10572.193    7819.4765  0.066541691  0.063529139 
  447000    1226.3058   -10952.461    -10572.19    7858.4208  0.057326643  0.063497813 
  448000    1213.6725   -10948.514    -10572.16    7899.7096  0.055316215  0.063456699 
  449000    1252.1399   -10960.474   -10572.191    7941.6215  0.062497872  0.063451905 
  450000    1196.1431   -10943.118     -10572.2    7982.0968  0.057406892  0.063421831 
Loop time of 55937.8 on 1 procs for 200000 steps with 2400 atoms

Performance: 0.309 ns/day, 77.691 hours/ns, 3.575 timesteps/s
95.8% CPU use with 1 MPI tasks x 1 OpenMP threads

MPI task timing breakdown:
Section |  min time  |  avg time  |  max time  |%varavg| %total
---------------------------------------------------------------
Pair    | 55778      | 55778      | 55778      |   0.0 | 99.71
Neigh   | 131.4      | 131.4      | 131.4      |   0.0 |  0.23
Comm    | 13.004     | 13.004     | 13.004     |   0.0 |  0.02
Output  | 0.0057107  | 0.0057107  | 0.0057107  |   0.0 |  0.00
Modify  | 10.889     | 10.889     | 10.889     |   0.0 |  0.02
Other   |            | 4.141      |            |       |  0.01

Nlocal:        2400.00 ave        2400 max        2400 min
Histogram: 1 0 0 0 0 0 0 0 0 0
Nghost:        5162.00 ave        5162 max        5162 min
Histogram: 1 0 0 0 0 0 0 0 0 0
Neighs:         0.00000 ave           0 max           0 min
Histogram: 1 0 0 0 0 0 0 0 0 0
FullNghs:      269590.0 ave      269590 max      269590 min
Histogram: 1 0 0 0 0 0 0 0 0 0

Total # of neighbors = 269590
Ave neighs/atom = 112.32917
Neighbor list builds = 9279
Dangerous builds = 0
print           "Running average thermal conductivity: $(v_kappa:%.2f)"
Running average thermal conductivity: 9.69

write_data	Therm_${Tsim}_restartpoint.lammps
write_data	Therm_1200_restartpoint.lammps
System init for write_data ...

Total wall time: 36:25:02
