LAMMPS data file via write_data, version 29 Sep 2021, timestep = 450000

2400 atoms
3 atom types

0 21.653209577768802 xlo xhi
0 32.4798143666532 ylo yhi
0 43.306419155537604 zlo zhi

Masses

1 18.998403163
2 6.938
3 22.989769

Atoms # atomic

696 3 1.7637189202503458 0.7512199922860877 4.732255743015023 1 2 0
151 2 0.8399219806495284 0.9763696192540526 1.8537060359006852 1 1 1
2133 1 2.569346603619236 0.48071885417951715 2.191122517267083 0 0 1
2113 1 0.6593435397211058 2.3545117139699236 0.6753868594100406 2 0 0
163 2 3.4098129579007095 1.8826566772941151 0.9488734685926098 0 0 0
545 1 2.9708617747125046 3.347057819711365 3.699103374059019 0 0 0
301 1 4.860979428955404 2.6694052212289536 1.9596425307265628 0 -1 0
1497 3 4.82498967456981 1.6742479710246545 4.001765413471909 -1 1 0
811 1 5.637125272311214 0.19440256962893424 2.4995496636904315 -3 0 0
558 2 6.213726817666709 0.5357109090321518 0.7326642354090804 -1 0 1
333 1 8.069633844505145 0.8792193826473211 0.32411746788696527 0 1 0
1357 2 11.294147668890167 3.0205531553426814 3.6958068365310663 -1 0 0
1098 3 9.413314433821085 0.9804198935049545 4.186752820413578 0 0 1
1600 3 12.574108794145598 0.6603663861950463 2.6664240837322417 1 0 0
249 1 11.00815980965986 1.0040423316467386 1.0086046149901324 -1 0 0
864 2 15.20421042815863 2.8170069119107266 1.8858283383795356 1 1 2
2388 2 9.354195233225445 1.8850778698013595 0.749881665636133 0 1 0
2017 1 14.660922705772029 0.7212926304852183 4.012078932926525 1 0 1
104 1 16.83859302961671 0.10746205748260411 2.252960004859464 4 1 0
2178 2 18.203290600065063 0.06981344187981514 0.4071911494352893 3 1 0
1542 1 16.39953309418676 2.927035548224132 3.001425661059026 -1 -1 0
1087 2 15.717690216131324 2.059918216996335 5.092805269169016 1 0 1
1712 1 21.47947354388548 0.07667378790962603 6.580529327165252 -1 1 1
2098 3 19.99610485357017 2.2630706395095137 1.073986733156547 -1 1 2
309 1 20.479019845868084 0.5051863147846302 2.095144317577259 -1 1 -1
97 3 20.019298693678596 0.7336040329457567 4.639476030942341 0 -1 0
2029 1 0.9992018274314916 4.964937772822253 2.082331282813425 1 -1 0
772 2 1.2502827382069197 3.4713467488617864 3.7566807059023413 -2 1 1
480 2 0.7582177946431193 5.857939429519957 3.4602466406127523 2 1 0
2254 2 4.682373496568555 4.027210225456453 3.0469040438032478 0 0 2
941 1 5.954161254039792 3.7809327155602954 4.629225368163188 1 1 0
544 1 3.5573917505263495 7.750861901049796 3.9112477033907984 2 0 0
566 2 5.765516423256786 7.059014130090311 0.8831998231441516 0 2 0
984 2 8.327602016464741 3.788059483964782 4.581036623572372 -1 1 0
1324 1 9.42187743128929 3.077688904102355 3.089825636090589 -2 1 0
721 1 7.070912180891459 6.498991234640042 43.27730348487405 1 -1 -1
581 2 8.138777888035365 7.975529181270401 0.7322298175397156 -4 0 1
1079 2 10.454440866993714 5.237749314079552 1.5228238261319968 -2 1 0
2159 2 13.678798750574112 4.773072761180603 2.7076506087980285 0 0 1
1033 1 12.901199246398495 3.1320294481542956 2.6306377410356183 0 0 1
105 1 14.987624639574948 5.18859039676355 1.6885321732148348 3 0 0
451 2 15.84914548316134 5.904062606154161 3.7063990797523805 1 0 -1
198 3 17.4086573953346 3.769514398653935 0.6775637699727737 0 0 0
1348 1 21.614980435098726 2.3433750383804877 4.680179754552865 1 2 1
689 2 19.44243215162573 6.000090466395952 0.005967955435163927 3 -3 0
783 2 19.852091982070917 4.935858292994474 2.597232520168716 0 0 -1
665 2 5.109266341927585 8.603166275281017 3.5336348231487418 1 0 1
644 1 0.3701322716800446 7.970713176438433 2.852223950463759 1 -1 1
1950 1 6.346520625892456 8.451949456744682 1.9856221174984299 0 1 0
1278 2 5.560604144756155 9.92460550249993 1.1282502923808957 1 1 2
248 1 4.178217099874261 10.03670960800845 2.7862576753706065 2 0 0
2145 1 10.406991184786099 7.123618308637971 0.25006048869758357 0 1 1
1932 1 8.58398701111451 9.67281720199211 0.7630269632332682 1 0 2
180 2 10.667721829346771 7.69266002780059 2.3511351943010235 2 -1 1
1738 1 9.108460800101062 7.552323201123112 2.7481703977530554 1 0 0
671 2 12.410351079806297 7.3277762210655215 0.5534737030210605 2 1 1
233 1 11.95964760070734 8.66496679346692 2.78803452673673 -1 0 0
1618 1 11.61608549475279 6.042315286452165 2.799383947270687 -2 0 0
1093 3 13.22635229422815 7.5971887032676895 4.097585891934833 0 1 0
949 1 12.802560638887975 9.286649666165456 0.15885356073046406 0 1 1
1819 1 16.382505914780616 7.204337659943175 2.239175634449109 -1 -1 0
1557 2 18.115631361927687 7.0758894526833895 2.253245799602031 -3 1 1
1129 1 18.04950866249009 8.63167373634925 3.514160380991988 0 -1 0
2209 1 21.5533570432788 6.588533558405005 43.22287914824111 -3 1 -1
528 1 19.827258309687345 7.178097837384722 2.0011233767295993 0 1 0
2007 1 20.60585989085646 9.94468451992222 3.69648148315861 0 1 1
2286 2 20.45010126079841 8.201290891745781 0.7300813937395695 -2 0 1
1539 1 19.522775486387108 9.702260928426156 0.5140162624505729 0 1 1
280 2 20.01201794549848 8.095103381121735 3.633762647117982 -1 1 0
1433 1 3.6544064642747447 12.253043252931862 0.22365850187526023 -1 0 1
1594 3 2.5418862969881615 10.320330675288695 1.7788336976042907 1 0 0
729 1 6.221476009154365 11.457168455746881 1.548540870966693 1 0 1
1140 1 2.5517227770070567 13.865945979078466 4.525336602626976 -1 0 0
951 2 5.088925682545329 11.916625898158493 2.8703751876402204 1 0 -1
575 2 6.998579940869501 10.459136602236907 42.24971774831132 1 2 -1
556 2 8.457673316818049 10.644969581333344 2.2982274786993324 0 2 -1
80 2 8.93840519205426 13.76342674588404 1.8925619684840655 0 1 0
18 1 7.863396816953664 14.203098837196347 0.6046845630777221 -1 0 1
1144 1 10.770578937873914 13.660209361153932 1.2142323705989642 2 0 0
2190 2 9.413374988350942 9.928737846451392 42.44182368812463 2 0 0
1971 2 12.347448488896948 10.048990312949128 1.6686078513173275 0 -1 0
706 1 12.708748625245823 11.827236954561112 2.5793207318402747 0 -2 1
2153 2 13.050275975265507 13.130753163972408 0.4825011854856208 1 0 2
757 2 16.862778401472244 11.48268962629507 0.3599172773453795 0 0 1
890 2 19.69307420923344 11.550011807191138 0.984119998906826 0 0 0
1116 1 16.790720854016772 10.310000932813962 1.479976518218743 1 1 0
1238 1 21.54799656718962 12.3673356544427 0.02680920005966661 -2 -1 -1
568 2 21.376482955387832 14.087529506967398 0.8307053662367545 1 0 0
1570 2 15.678568647028655 14.88921658417418 4.538006538152678 -2 0 0
2189 2 18.176689117166692 10.581236377015014 2.7957338328091237 0 -1 0
509 1 0.8244857258407238 14.694352065871996 2.010497745276535 -1 1 -1
694 3 2.528981525214267 14.54151084200164 0.4893469151871364 1 0 0
1501 1 2.8705860983507416 16.97443874578161 0.8720209483922713 1 0 1
395 3 1.9014616669420206 15.79490221938604 3.8006074824159755 -1 0 0
968 2 4.356679903789423 14.353263532793964 4.078941592687741 2 0 0
1141 1 4.533615206905944 14.179547327584434 1.9081597121152596 -1 1 1
1785 2 4.515341014584109 17.140113969947468 2.1267070656413454 2 1 1
2082 2 5.579141595918794 12.794919918535376 0.44241801782629014 -1 1 2
1535 1 8.547211938558405 15.300891426758547 3.083999928600758 -1 0 1
1004 1 11.467617123820467 16.620126200440613 0.21394815224492836 0 1 0
651 2 9.261986029218045 15.293419893427192 5.495201602189658 1 0 0
2126 1 6.323134722549613 16.88885062210989 2.9796620604734025 0 1 0
296 3 6.4062857282596095 15.318585450592941 1.9568252260077392 -1 2 1
1696 3 10.609197215958929 16.024905927365648 2.6805549352541274 1 1 0
824 1 10.503663668432026 18.558604885089665 2.5840554636803623 -2 -1 0
1212 1 13.174196616176008 15.384902136990476 2.971913950410344 0 -1 0
435 1 14.019996837438214 14.78805319557429 0.26350987819259963 -2 0 0
708 1 16.156245339762833 13.242317245136134 1.7646051922576278 -1 0 1
1656 2 15.748504834257446 13.652448222065543 0.11319184049880704 0 0 1
1954 2 17.72932988952024 16.592154306022636 2.775261539328216 1 -1 2
444 1 15.672190673054267 16.676861425097936 1.7601868938799579 -1 -1 0
366 2 14.678622201827901 17.198276001434603 3.0181534463428528 0 -1 -1
311 1 18.90747982971228 15.265829299980169 2.6752830234965437 -2 1 -1
896 3 20.641316049148998 16.318181501159458 2.749463797346781 1 0 2
336 1 19.066183195971753 17.60866040284237 3.559610983758631 0 0 0
606 1 3.654026529303401 16.926309141943243 3.8043056932082453 -2 -2 0
1587 2 1.532708089762446 17.904030004537624 0.08260661173437 3 0 0
1999 3 2.7897743673823365 19.304281149328464 3.546739130604499 1 0 2
33 1 1.9577715914288827 20.487920444952373 1.779758704860827 0 0 0
1127 1 2.11067641738627 19.48454866531796 42.52364817621926 1 0 0
1931 1 4.986957714088794 19.05804934065585 0.9853025253804537 2 0 1
1770 2 5.461759772327797 20.413118849560448 5.436352173229923 0 -1 1
1698 3 6.187887253761954 20.883776758490956 0.034575682305859334 -1 0 1
702 1 7.470459664830299 21.084973865691822 1.9580897122049425 0 0 1
1475 2 6.630641519641389 18.251657308516503 1.2981057397672933 1 0 0
967 2 10.187529277567617 18.21089015832954 0.5714045792629053 -2 0 0
1726 1 9.662619226326623 22.742906743176658 1.5933751754070975 1 0 1
980 2 8.802533775045196 20.881755976504298 0.4831047772639515 -2 0 0
562 2 7.8498411927282 22.96275047529132 1.575554775379999 2 0 -1
91 3 13.889380462954975 17.424049259740094 0.4499425584717291 3 -1 0
1135 1 12.429759605497791 19.293617673134683 43.28940075587102 -1 0 0
2140 1 12.408246281566502 21.18178547039139 2.811962848415441 0 -1 1
2064 2 12.088733309915112 19.618508814098274 1.9461578634686019 2 -1 2
901 1 13.719283866219536 18.67660566098627 2.38788834514119 1 1 0
1043 1 16.701351817221095 19.75810357936691 2.4051758118176516 0 0 0
2298 3 14.309993882200832 20.769722317781877 0.4428429425619574 0 0 1
1577 2 16.41768864724707 20.995207100202567 4.008504283255617 1 2 0
1581 2 18.32899549198166 22.154906095795404 5.648600428811601 0 2 1
1384 2 18.699733000214255 19.304397496270145 3.4936741023718243 0 1 1
2105 1 0.9743959594413353 17.876251631226488 3.173487060339378 1 0 2
657 2 19.78353276033699 18.457719856269623 0.497179166867644 -2 -1 1
1821 1 19.962508916044023 20.090411846463137 2.448426861719009 0 -1 1
64 2 0.7257338583633931 18.965323513802137 1.870239124396919 0 -1 0
2234 1 21.506909229448386 17.603509337740626 0.7969577169214104 0 2 1
2129 1 2.669112437015001 23.72046750569738 2.040904286198367 0 -1 0
497 3 1.0704057223316124 25.195983326051383 1.4429269064309571 -2 -1 0
763 2 1.3593775652752897 22.12887402356107 2.013737096824247 3 -1 0
2257 2 3.3306493579595453 24.39447748109677 3.5220795411480292 0 1 1
2229 1 3.8861654675741746 22.37488233410511 42.88360506053056 1 -1 1
2185 2 4.068499666200882 23.563490298780767 0.8807823917153346 -1 -2 0
241 1 5.8202273186161895 23.542008468650863 1.514880387720511 0 -1 1
98 3 6.461516278607041 24.677554912213647 42.922615576149845 -2 -1 -1
1222 1 7.841378296580523 22.282697826976925 43.15724092092868 1 0 0
1367 2 6.483886798374911 24.810452757955225 2.652313801207462 -2 -1 0
638 1 7.524986832282747 25.82270826677528 1.1472513199402328 -1 0 0
912 1 11.883224231810575 22.134599819692014 43.216848459972766 -1 -1 -1
560 2 12.027586645193992 23.924690370007657 0.6052412829145952 -1 -2 1
442 1 10.725377249753445 25.089028185631857 0.5266118101265452 -1 0 1
165 2 11.89697127121354 25.185245950646546 3.501250586436076 1 -1 1
293 3 9.464283121784158 23.449949637389697 42.62881552226391 -1 -1 -1
881 2 16.192142651561323 18.344423631768475 1.1801271909787472 -3 0 0
2114 1 15.324910695886414 22.325051546180454 1.3415086411356019 -2 -1 1
1378 2 16.931942140015572 21.296515032672122 1.598494878937746 2 1 1
1319 1 21.429470387316155 22.567086081465792 2.3849591007237776 0 0 1
1299 3 19.222331397161145 23.437236812598012 3.127674534848143 -1 0 1
440 1 18.03735333170824 21.93693620088175 0.3368099004033471 -1 -1 1
4 1 19.896863238845643 22.160157143503383 4.406183106161766 1 -1 0
365 2 21.046483284133263 20.90401507511547 3.536504883346595 0 0 1
553 2 0.6328458236062003 28.972958526761374 0.8213041344246698 1 0 -1
211 1 2.0726867379074934 27.447401855154016 0.8564966118823794 -3 0 -1
51 2 3.5114262977103037 28.7372651030382 0.5290083633633355 1 -1 0
701 1 5.732184734501172 26.13754362266223 41.01042998815736 2 -2 0
371 2 4.313130411889885 26.755256359525653 42.00009698973257 0 0 -1
1949 1 4.222605391005632 28.451565538811195 2.9809534295832747 1 0 0
168 2 6.493492619355098 28.009739635538235 4.000825190226426 2 -1 -1
1550 1 5.957478075701725 26.32619032733376 3.729745121999224 2 0 1
2315 1 10.584792657244629 29.71297052179239 1.2398931785923688 -1 0 1
1997 3 9.767787491826281 27.013998043220848 1.6589435894407898 -1 -1 1
2046 1 8.696209937701836 28.398266706460976 3.8044450282391926 -1 -2 0
1389 2 14.244789985721077 26.017179331173363 2.0640886838198655 -2 -1 0
1112 1 11.913650460231034 28.16086910737473 4.4265106175884785 1 0 0
719 1 18.4578049656034 25.998425419308333 1.1050816785442144 1 -1 0
1938 1 15.928719913815511 25.783968063441 0.7985101382613653 2 -1 0
470 2 17.345755694353194 27.15427785869181 43.14400025308008 0 0 -2
1546 1 21.014564753061883 27.302315527610656 0.4557431834808716 0 -2 0
1499 3 19.890206659985687 27.10186720319589 2.5033794026260994 -3 0 0
11 1 1.734484842288687 29.486205684119636 2.488776677049761 -1 -1 0
417 1 1.0721996279698927 31.35748693805042 0.757401494611362 2 0 0
1466 2 0.6864134855533301 30.849202081580938 41.78676204611971 4 -1 -1
1377 2 21.63530039557833 29.37268885593683 3.3436975772891437 0 0 0
627 1 3.8356928875008025 30.55533561194574 1.0616097287540494 0 -2 -1
227 1 6.377968906528523 29.89668265793886 1.7845176516175212 0 -2 1
1664 2 3.8738603657207222 29.025786031278926 4.851965328915906 -1 0 1
795 3 10.814929382436956 32.10148135757691 42.78619556877471 -1 -1 -1
1297 3 8.600907073446578 30.157403753308692 2.0759178702474577 -1 1 0
1453 2 13.823444385592342 30.19333124304178 0.9290972842658024 2 0 0
101 1 13.544088962626695 30.955420014219772 2.6230448477205877 0 -1 0
149 1 15.56783734426908 30.232196008416437 1.1361199771804706 1 0 1
750 1 17.611443137512463 28.413097007631237 1.041572342437356 -1 0 1
2019 1 18.10909056853871 32.412321592651466 41.6187160936831 -1 0 0
863 2 15.480521082126282 31.892618300966483 2.7789937283945916 -1 0 1
1892 3 18.5261805863725 30.992156867041135 2.4687353383038286 -1 0 1
420 1 20.172173537578217 29.511606272130997 2.1410140333911354 -1 0 1
1659 2 19.58769123932213 28.97517307788242 0.29940269979821926 0 0 1
2275 2 1.7833331064552749 30.148741213365984 5.267401004114115 2 0 0
302 1 3.8593128718800553 1.2171449144783648 6.048350143883386 -3 0 0
1159 2 4.084779483958839 1.480812609744734 7.809968548130122 3 2 -1
1494 3 6.12216748855926 2.3430218402150595 5.887744817948242 1 1 -1
2043 1 7.488935474761392 4.707285686572643 7.641123582005922 1 1 1
86 2 11.408537077555081 0.41959933834338603 6.086577586834697 -1 1 1
1902 1 11.786024336856679 1.1993371823907086 4.471318451430489 0 0 1
1551 2 9.214732578588979 4.237154106119381 6.957308136278778 3 1 -1
2 1 8.095316267769137 2.7308926855831523 5.988268968193916 -1 -1 0
387 2 14.273563623693313 32.14496489622181 7.872762059172147 -1 0 1
1410 1 14.040973720689355 1.1974517719081506 7.01991081057099 0 1 0
1752 2 11.254750060865824 3.55003243727198 7.6357476076338955 1 2 1
38 1 17.539344244195313 1.3867374389919083 5.220537044458124 -1 -1 0
779 2 14.926523439341567 2.712334286016468 7.78136126924211 -1 0 0
755 2 18.17709616497173 2.1016899365478423 6.95799488697947 1 -1 0
1510 1 18.93893575422965 1.8650813069514007 8.689418106627823 0 1 0
341 1 19.05349292958321 2.7410555459285004 2.8685818087676345 0 0 1
2399 3 18.046957030301485 3.3150892220079373 4.704748307145061 0 0 2
52 2 3.3766823265846937 4.516991291389847 5.451063814808317 2 0 -1
2296 3 1.3674889038347802 5.593109040470892 7.833545459929812 -2 1 1
1717 1 1.4318734131805049 5.3912829634398 4.754469077390787 3 0 1
1627 1 4.494218493845789 5.854778620332778 6.133553320125042 1 -1 2
22 1 6.725617124237054 8.263806666373435 4.913272357971541 1 0 0
599 3 6.755870826358605 5.6321264959956485 4.658960289764678 0 1 0
1263 2 4.169169462659255 6.73640665291286 7.513147753891475 0 -1 1
1777 2 5.47901914285075 4.959221070121625 7.747814044074397 2 1 0
2142 1 8.915720464846688 5.672676664371869 5.526525611467343 2 -1 1
2169 2 8.07046780391614 6.721000523978782 7.7737426349587535 1 2 2
1814 1 11.660503959401002 3.6487639163122036 5.214227233547073 -4 -2 0
2094 3 13.490648659549075 5.879044006927362 8.777039241134618 -1 2 1
1398 3 11.259303838557722 6.067389173084897 5.080262365325046 2 0 1
533 1 14.761909899393114 3.6129487627674144 5.502701886380587 -2 0 0
412 1 17.16195485695248 5.430237382399836 4.7758273771499375 -1 1 0
169 2 13.112819216936659 3.2871718711782276 6.2015911782985444 -2 0 -1
2187 2 17.391956505949107 1.5953694218190186 2.756717095100322 1 -1 1
107 1 15.392396965902032 6.044601872242413 7.43178335015161 0 0 0
513 1 13.845860844351495 5.601326049118065 4.245507143738709 -1 1 0
989 2 15.659244276466916 5.32790660767022 5.802724679180007 -2 0 0
2324 1 20.44983881277782 5.5993322632891545 4.090110382810718 0 0 0
426 1 19.692997470961405 3.086238072781629 6.2792521106881445 -1 1 0
1929 1 18.33737480848986 6.604872825529248 7.808533808814577 2 0 1
166 2 21.05370532712474 3.8598081154026094 5.484935573425097 -1 1 0
1818 1 21.057498361503523 5.2019747461929615 6.622451388214696 0 1 1
1187 2 20.334754625554307 3.99930466444443 7.757047264813239 0 0 0
990 2 0.722201173238171 9.538723961062917 3.9789998352521216 1 0 0
481 2 3.517171759722934 7.848613148586114 5.647068431825794 -1 3 0
2115 1 1.379578035769051 9.31189661958974 5.512574404705367 0 0 1
2309 1 2.3786647247919754 7.574229858300942 7.480909699354123 1 1 0
1652 2 7.664258386242081 8.53616744754847 3.500874436850412 0 1 0
1648 1 8.43751042353668 10.380992082040533 4.042283891359676 0 0 0
520 1 4.070520682246801 9.026236968955509 6.897767108158729 1 1 1
993 3 10.364588178327207 8.951893703869908 4.341256523441173 1 0 1
1843 1 14.131852135510428 9.551250482470328 3.3176819968840867 0 2 0
827 1 11.279352962990568 10.850911601545848 4.987781036013959 0 -1 -1
2188 2 12.865531014625837 10.54676640995971 3.9458761982089183 1 -1 1
2149 1 12.204754798537245 7.884985282228462 6.168349747657491 0 1 0
667 2 15.84303205260149 8.98115368757607 3.311413588056757 -2 -1 0
1690 2 17.6178212511201 9.072804625153454 5.367526693008613 1 0 0
422 1 15.538231708191315 8.185330587467044 5.555798140286664 0 1 0
297 3 14.19284136791801 9.569385997994994 6.387237857737518 -3 0 0
1459 2 19.51441592431108 6.353020813492002 5.741054267215713 1 1 0
1277 2 20.33188650037832 11.663161873889583 4.087213024713712 -3 1 0
1812 1 20.345432324001084 8.019245722280054 5.40811354395724 -1 0 -1
1865 2 1.2902279055166976 13.267870554028363 3.490594878129081 0 -1 1
632 1 20.573369955183185 13.86857859912584 4.488607630175822 -1 0 0
1943 1 1.1308123281062714 11.408785550161705 3.2156686652863353 0 2 0
1436 1 3.5443997487896226 14.566221480160213 7.618973660954216 -1 1 0
1276 2 2.7625319366302157 9.51811935981561 7.824190030237468 1 -1 0
692 3 3.1725097124804487 10.836743489449185 5.4111695181454005 2 1 0
928 1 5.385435120801835 12.39762083644677 4.402290404861542 1 0 0
1653 2 7.0705931507082305 9.23156334582715 6.48207742038354 2 2 0
243 1 6.7481752344850126 11.26087163139532 6.957545343172356 3 0 -2
368 2 2.1568792799101977 13.562796574818044 6.561514483854092 0 -1 1
317 1 6.535962308801557 13.960851657383087 8.152238941110054 0 0 0
1037 1 9.3729818737213 12.418355815310871 3.049972313469336 1 1 0
490 2 6.955209744554463 12.638302325977733 5.424872092953282 -2 1 1
2208 1 8.680592891467283 13.571617763345008 5.526088620324733 -1 0 1
268 2 9.880214562972473 12.545210901146973 4.955120421725512 2 0 0
1174 2 14.8087091763547 14.128291994859666 2.339624178897846 -2 1 -1
84 2 10.965674232410079 12.238063521643445 2.1752915771344465 -2 -1 1
12 1 11.31875768162581 13.765080340898498 5.153891414753241 0 0 0
2054 2 16.20194828407694 12.295214961367918 3.5159167676331324 1 0 1
2042 1 13.859705625628644 11.440080915701873 5.522199318843768 0 -1 1
1562 2 12.860924843480888 12.783664334698711 4.317434206806981 2 0 1
710 1 14.867229643672625 13.356254211383197 3.9052915768579997 -1 0 1
519 1 16.815390381819356 10.570096191279212 4.539768150129922 0 0 0
739 1 19.20298904198656 12.090997906116062 2.502681183192146 0 1 0
1655 2 17.631005712639688 11.885174996556188 5.27115177701705 0 1 0
1334 1 19.42243602899963 11.832614507215913 5.773933380467254 -1 0 1
1269 2 19.009052218465666 13.538228442230901 3.2860383606367463 -4 -1 0
1146 1 0.8069010703932658 14.84129351840203 7.087165312828594 0 0 1
351 2 2.098176068995283 15.860582946570593 7.5052377891885 1 1 0
1881 2 19.817249475874725 15.054367622175748 5.572174782731851 -1 1 1
828 1 5.741095988653039 15.137420308981142 5.3685999499090515 0 1 0
1415 1 2.214673425760996 17.160598319949994 6.302861792509417 -1 0 0
1658 2 6.18450177262908 15.312870523165842 7.254025987862907 0 2 1
1959 2 7.767546365467798 12.468853842852436 8.10351616436348 1 1 0
1505 1 8.015582230944656 16.5837176976361 6.081918554666277 -1 0 0
1517 1 11.113310202987043 16.493296038059547 4.72767438225416 1 0 0
579 2 12.507739820432933 15.41218949444317 4.676806100139549 1 0 0
2373 2 10.615759022726593 18.17975444553306 4.2235267115042445 1 0 1
1325 1 14.355710610871943 16.341083348138927 5.387097740370906 0 0 0
123 1 13.59563374472981 13.235523323630888 7.357728521896493 0 0 -1
715 1 16.881489505543385 16.46619641542143 4.236751690823837 0 -1 0
555 2 13.611801203299953 19.623383270114232 4.098512958990232 -1 0 -1
1422 1 17.619609829833554 17.802585136493118 6.8848068557142055 1 0 1
59 2 17.31346428281744 14.410649953459746 7.702576525341984 -1 -1 0
2164 2 18.485629415690017 17.193342357924028 5.32674331928279 0 -2 2
1007 1 17.33290596799048 13.364283518282072 4.352464072102278 1 1 1
1603 1 19.94611955447994 16.73633059616267 5.772468818444753 -3 0 0
1623 1 3.0713401654750134 20.259186421667675 6.8471787143095515 2 0 -1
394 3 0.14160572699829638 17.828868404624348 5.355610589154643 -1 0 -1
2184 2 4.582077189762657 16.967481174802774 5.284285670284863 3 -1 1
1637 1 4.520803809126518 22.536806174730955 6.480561360708509 0 0 -1
2005 1 5.2695127673285675 18.08101520665472 6.410626226918441 2 -1 2
1360 2 9.168241619288008 20.85504909368536 5.992707210479662 -1 -1 0
1867 2 6.993132550679063 16.116268482225735 4.245198781373174 -1 0 1
1631 1 8.562449676523983 19.07147838244218 4.724077707006181 0 0 1
1875 2 9.009578882858893 19.627217377830195 2.5817513650792248 1 0 1
573 2 11.76432137574356 20.36675212629024 6.475431758376442 0 0 0
334 1 7.972904838877604 19.046446108600318 8.09416705277229 -1 2 0
114 1 10.656579320710964 21.807438300313898 5.602884187070105 -1 0 0
2065 2 10.934012859135871 21.837667328705834 1.9615254850807045 -2 -1 1
1629 1 12.176607590174866 19.261136414615308 4.814496365421236 0 0 0
2056 2 12.330096834129908 22.46971935650783 5.026499623645071 1 -1 1
288 2 15.150497700255176 22.636057780410574 6.016037422382082 -1 -2 -1
1443 1 14.150228491426265 22.82950103962919 4.647559803487292 0 1 1
1 1 17.848495550255258 20.119667570774887 5.077979207098509 0 -1 0
209 1 15.171003100861736 20.295300476938603 4.795553462835947 -1 0 0
687 2 16.0707410602053 17.216503829506905 6.196631394066521 2 0 0
1549 1 21.06300913983943 19.808400243691473 6.33624783927801 0 0 0
2390 2 1.210778262831072 20.914997088176417 6.256088010107587 0 1 1
1446 1 2.355971048637049 23.569888308819753 4.905594519823482 -2 0 1
1855 2 1.588374966731079 25.23116870151867 7.348718487263956 2 0 0
225 1 2.6845169013979713 26.52678514940978 7.75543253260143 -1 0 0
174 2 3.1380966038102565 22.174052877934713 5.0524008893482835 1 -1 1
662 2 0.29212613347067895 22.634195380039277 4.4298125812023015 0 -1 0
2327 1 4.103262074922354 20.92683674706606 4.276822791765421 1 0 1
895 3 5.660799688899523 22.311813102940494 3.072664899120255 1 -1 0
1342 1 7.358651191995334 21.617419502594537 6.045186645225769 1 -1 1
815 1 12.774863954300589 24.113271931912916 2.2774262752462793 2 -1 -1
239 1 8.097148460051503 23.974980339381048 3.1268394796786034 1 -1 1
1800 3 8.808644208919988 23.2465353420118 5.210432613555972 1 0 0
2335 1 12.157218953200749 24.45737524765169 5.389759308161628 2 -1 0
1286 2 9.370540701484526 24.71623184809592 2.358106708745599 -1 -3 1
69 2 13.804092818457955 24.498071546566013 5.367565871375188 0 0 0
588 2 14.756571726296709 23.187702862782192 2.7649101558668177 1 0 0
1039 1 14.895113970710081 25.030856631438883 3.8064454258196503 0 1 0
1846 1 17.204071535602747 22.484102284554933 3.5679806739768463 1 -1 1
1748 1 19.198659293506747 23.270104162612782 6.923550586649296 1 2 0
1109 1 18.209739599218615 25.283522393658995 3.81193164121764 0 0 -1
173 2 16.641230296956554 24.304675093389175 4.01128863676133 -2 1 1
1430 1 16.7992271400079 23.180101249490665 5.749854106345582 1 -1 0
1633 1 21.63135733164596 25.40649029079695 3.272511551604433 -2 0 1
24 1 1.118330002509277 20.95004910586823 4.557347406018793 0 0 0
559 2 20.5655222653732 24.10395327101294 7.097976118860698 -1 0 0
2210 1 0.33499085042925786 22.696288019088218 6.814137888269444 0 -1 1
139 1 2.8646482330541043 25.97269886758216 3.7895989164354877 1 -1 0
2292 3 2.0325982266784397 27.718674372020768 3.385257002844018 2 -2 0
2205 1 2.8229425765233764 28.867468117151855 6.29176591347346 -1 0 1
1694 3 4.048501807145261 26.414507190025255 2.0740036199038885 1 0 0
1787 2 6.425837519441613 25.983538445922488 8.359467645318391 1 1 0
1414 1 4.779291947528519 23.9388916143389 4.158023616425999 -1 -2 0
1114 1 10.228049542103545 25.837324659068194 3.5314806094828426 1 1 -1
160 2 5.802713316764493 25.646450429107382 5.395205772941549 0 -1 1
1595 3 10.052123872269561 27.521408676953822 5.107114590812638 2 -1 0
2318 1 13.678697919609267 25.13972772681984 7.073259934554974 0 0 1
1862 2 12.266018469490842 28.836866793332785 6.053365255325022 -1 -1 1
1922 1 10.579211235650883 29.484673328449777 6.3662784371442935 0 -1 1
226 1 15.34564633121136 27.55010253134988 2.79438631861309 -1 -2 0
462 2 15.018890699327596 26.828355172940256 4.618697914970569 -1 0 0
7 1 16.653674008840937 26.234985320675364 6.04015821726259 0 -2 0
2156 2 16.971995253952443 26.696380518088755 2.577192832517994 -1 -1 0
1682 2 18.328650707455477 26.55994870525773 5.0265278000848905 4 2 1
981 2 18.509381584330132 29.72108149440502 4.839350226042676 -1 0 0
1647 1 18.334737281781734 28.026641940292635 3.8997901466641425 1 -1 0
829 1 0.1358484259491366 27.988361739411797 4.269223259111639 0 -2 0
554 2 1.231417713816618 25.169065585413843 4.515906870420478 1 0 0
1018 1 0.7232250612530865 25.370922533976177 6.116335356197017 1 0 1
1471 2 2.3017591423892423 31.081497622898322 2.1498544250706515 1 1 0
1106 1 0.22875401072873672 31.185044551738088 4.39163324483787 3 0 0
2395 3 21.495408481442105 27.13501042808191 5.919922818745892 0 -2 0
1386 2 6.870561102487703 32.00206763483874 3.404858494339497 0 0 1
1444 1 5.969660345852915 29.449257076694945 5.008244493873053 0 -1 1
2021 1 3.0435559765052127 31.23568612402846 4.499146128012827 -2 0 0
1524 1 6.675865409505363 0.09413097447663121 5.4380588399164 2 0 0
493 3 4.415500594897143 31.82661582311457 6.408744862432205 0 0 -1
1417 1 8.727604526515341 31.85038850191461 3.202628393980886 -2 0 0
399 3 8.479011446837385 30.271426289938468 5.426736997373875 0 0 0
1794 3 11.441604145382824 30.19602111240536 3.4235442252494357 -1 0 -1
1271 2 14.135375348192168 32.24299534828329 5.452614096122431 -3 -1 0
447 1 12.462428258525096 31.165032892012427 5.708347638530998 0 -1 1
1151 2 11.681020964452507 30.460237008911932 7.460643059362696 0 2 0
1496 3 14.202950319877754 29.48797217454532 3.8591036317849583 2 0 1
726 1 14.651323572654812 28.226312906718878 5.482403523879764 2 1 0
634 1 15.355195592989265 31.18920461495223 6.309716427902675 0 0 0
428 1 16.893299167586765 30.36869728334682 4.227109309295528 -1 0 -1
567 2 17.149717447144937 32.04413590728858 6.095976463706369 2 -1 0
2279 2 20.825025342700368 30.93194809137271 5.788765153184391 -1 0 0
1709 1 19.22203880181099 31.38888383289872 5.431331318795229 -1 0 1
1026 1 21.50020723046446 29.575096603856124 6.621751784190657 0 0 0
736 1 5.150763428494306 2.8316867350429713 7.715818488718613 -2 -1 0
1107 1 0.568331328077966 2.5521802007570016 8.22742139773372 0 0 0
1598 3 1.8790543497630323 3.1509441683638553 9.434451906373514 0 0 0
1121 1 3.622713632038595 32.38178965108747 8.391814455323317 1 0 0
1298 3 7.05466212106001 1.3159505490881915 10.684224540580773 0 0 1
728 1 2.739056237045209 1.5448282946473262 10.021276076980351 2 0 0
313 1 5.326121755500386 0.6828646664500291 12.88941228890647 0 2 -1
1247 1 8.383298139620427 0.9496099176511036 8.756185125872635 0 -1 1
768 2 9.016562137510293 1.4455843708494018 6.9154441676351635 3 0 -1
1329 1 10.789728648539695 1.9202133391493486 7.635821377656507 1 -1 1
298 3 12.728575365432542 1.7532584716011408 9.469680007610142 2 0 1
645 1 16.450581605763713 3.1029894486959435 7.442686462989873 0 1 0
375 2 20.120117732826195 2.4082977042783416 10.065364556622479 3 -1 0
538 1 14.513728011203952 2.1479340373859483 10.554545482353523 0 0 0
157 2 15.925305391062988 32.20210002812252 9.512240318411811 0 -3 0
82 2 18.060512436786006 1.0688936828173883 12.313326742683095 -3 1 0
257 2 21.40704209563074 31.071967983933543 9.933969596628895 -1 0 0
2225 1 19.287554825629055 3.0390736793260946 11.770356139459105 -1 0 1
2344 1 21.455307448779955 0.3208572651539908 9.513922031533786 -1 0 0
103 1 1.6894313586209146 3.815667485115719 11.328499649837873 0 -1 -1
695 3 4.125484653466755 3.4376362356198307 9.840994514638838 0 0 0
1225 1 3.017705237708672 4.407653858192678 8.01043706403496 1 1 1
2009 1 5.634444836385966 7.1491367667391765 8.104263941127 -2 -1 0
1877 2 6.393789261644716 6.663606603826387 9.794809141310758 -1 1 2
2003 1 6.375045799413122 6.733391886480481 11.747845136453654 0 0 1
831 1 8.196784709804485 6.369946842930152 9.990674276766523 1 1 0
826 1 9.922137104318846 4.559823201781254 8.494607808487068 -1 0 0
1641 1 5.621287680018655 4.966445444546501 9.639413862898826 -1 1 -1