FLiNa to FNa ratio: 1

100 atoms 
0  bonds
0  angles0  dihedrals
0  impropers

3 atom type
0  bond types
0  angle types
0  dihedral types
0  improper types

0.0 11.002622374124789 xlo xhi
0.0 11.002622374124789 ylo yhi
0.0 11.002622374124789 zlo zhi

Masses

1 18.998
2 6.941
2 22.99

Atoms

1 1 35.447 -230.665 98.537
2 1 -103.277 118.098 158.402
3 1 -23.799 102.098 -27.495
4 1 7.873 154.498 110.352
5 1 -107.302 225.175 -23.456
6 1 -11.58 268.951 74.302
7 1 -189.155 243.915 -79.83 
8 1 -11.396 167.103 57.785
9 1 82.876 -39.858 8.345
10 1 120.87 56.503 -37.261
11 1 63.546 -52.093 51.871
12 1 149.498 315.631 37.951
13 1 -89.549 65.67 -144.711
14 1 -10.326 6.295 108.45 
15 1 78.747 4.152 -45.575
16 1 188.365 69.736 82.722
17 1 5.509 204.253 75.575
18 1 179.292 -53.463 -11.01 
19 1 -58.458 -145.411 -22.579
20 1 100.576 -16.414 4.63 
21 1 21.024 31.228 80.493
22 1 286.833 -82.74 -132.429
23 1 159.873 151.006 279.408
24 1 -14.957 270.005 19.275
25 1 294.422 49.93 15.71 
26 1 124.73 148.303 166.686
27 1 -43.305 -82.638 -1.243
28 1 128.016 -6.858 4.645
29 1 61.897 84.27 146.886
30 1 75.37 117.927 139.158
31 1 -28.457 7.388 168.487
32 1 -23.915 -43.691 -58.225
33 1 72.785 5.052 -134.627
34 1 -79.172 -2.581 68.968
35 1 125.116 -32.806 267.245
36 1 160.995 -29.425 -160.121
37 1 99.472 -60.475 -7.658
38 1 185.939 -21.636 61.061
39 1 82.943 277.602 165.699
40 1 -97.641 -66.237 9.521
41 1 49.004 35.647 -54.502
42 1 214.703 -52.036 35.697
43 1 -22.778 -23.227 34.782
44 1 84.907 -74.969 73.841
45 1 124.405 204.76 -7.659
46 1 235.672 123.281 27.244
47 1 29.572 202.179 128.279
48 1 21.831 -101.948 -232.157
49 1 -1.831 115.651 68.647
50 1 41.881 108.756 245.577
51 2 101.909 82.833 0.855
52 2 23.438 -46.79 -9.81 
53 2 300.548 112.988 23.154
54 2 -174.472 241.382 -186.062
55 2 241.528 131.625 -113.833
56 2 -71.791 -120.626 108.142
57 2 25.4 15.794 -79.176
58 2 -40.628 89.478 -93.864
59 2 -7.39 230.08 111.135
60 2 4.383 155.536 -177.047
61 2 258.809 -84.801 129.33 
62 2 -33.432 0.794 -119.662
63 2 -10.112 79.669 32.983
64 2 81.944 313.614 227.545
65 2 -102.32 121.153 137.698
66 2 -68.481 -19.5 -45.409
67 2 -7.437 183.148 -175.91 
68 2 -103.005 -48.513 263.343
69 2 -35.92 -61.148 -66.315
70 2 172.578 -44.135 -146.965
71 2 -62.146 171.789 116.971
72 2 -140.519 168.534 204.187
73 2 -27.479 28.239 182.398
74 2 -37.989 119.359 93.154
75 2 37.303 144.306 316.604
76 3 100.081 -116.976 187.166
77 3 -1.623 101.487 87.605
78 3 108.294 32.712 -84.035
79 3 26.083 -201.444 -21.641
80 3 37.548 -80.036 128.927
81 3 95.745 117.874 150.379
82 3 66.06 -66.314 194.944
83 3 365.361 248.565 -196.869
84 3 -3.948 103.283 16.831
85 3 21.236 97.896 117.225
86 3 274.997 -10.516 86.713
87 3 -58.615 -156.299 44.678
88 3 1.209 177.363 348.587
89 3 22.319 195.743 203.539
90 3 -199.033 313.995 22.38 
91 3 11.261 14.391 339.814
92 3 61.045 333.285 241.92 
93 3 199.698 90.948 -42.536
94 3 -70.501 -74.74 -81.19 
95 3 23.111 -23.405 167.675
96 3 224.008 35.607 -1.186
97 3 79.017 300.168 137.653
98 3 188.973 -343.69 390.366
99 3 60.565 262.811 91.369
100 3 112.473 94.093 61.729