LAMMPS data file via write_data, version 29 Sep 2021, timestep = 450000

2400 atoms
3 atom types

0 22.005244748249577 xlo xhi
0 33.007867122374364 ylo yhi
0 44.010489496499154 zlo zhi

Masses

1 18.998403163
2 6.938
3 22.989769

Atoms # atomic

364 2 0.4969044662584688 1.0274482562655 1.6439526453531308 -2 0 0
1213 1 1.1500532681266291 0.7729981409710803 3.737592562989476 -2 0 1
1941 1 2.155988966638814 0.5546110817984095 0.7052327605355495 1 1 0
1771 2 2.5822289267778253 3.6846397915469438 2.9529960851010832 3 1 1
290 3 3.92068924007352 2.011904771427337 0.6140044828755694 2 -1 0
818 1 3.844939090660356 2.6296565660209548 2.7057046851103568 -1 0 0
2327 1 9.942412132149537 2.340801210275645 1.7027883367612244 -1 1 1
1398 3 9.563068674809994 0.5618976933431978 0.6904380545184323 -1 0 0
497 3 7.363372329619443 2.800191383387888 1.262400295210717 1 1 0
2349 1 7.705125209477995 0.1262967726803954 1.3774762522745558 0 2 1
1685 3 10.611822892148016 3.465118583411849 0.08710661261903521 -1 2 0
933 1 6.748000389618819 2.751262652409844 3.6826804290559316 -1 0 1
1782 3 8.071791583848533 1.0497425180688806 3.251622068063891 2 1 0
1774 2 11.654291727495812 2.1344118457530787 2.3769513710531065 -2 2 0
2299 3 13.445613936847918 1.007560822983005 0.7902429211673763 0 2 0
549 1 12.616828482742713 2.9050384726300327 1.0934006286488775 0 2 0
1578 3 16.17809056103895 1.8503573065073695 3.6792364577295427 0 1 1
2307 1 17.873472608027697 2.053796987777838 1.6947158759929966 1 0 1
289 3 16.936481879179656 0.5551566227658697 1.1154158030977277 0 -1 0
486 3 19.48892006741907 32.70655779870842 2.6722271714450834 0 0 0
1866 2 21.638768980855676 2.9900267366370783 1.1807997292743615 -2 0 1
739 1 20.563788180292704 1.8458321737208248 2.158971267608154 1 0 0
1242 1 3.0027827879483135 5.066174219521318 2.2207162062131833 -2 0 0
1297 3 0.9941618274937133 5.66775655291549 1.633233153647683 1 1 1
2011 1 0.9268342324658917 3.355504036812493 2.369470385690713 2 -1 1
1474 2 3.9821562618136097 6.136575286986397 3.447650373007492 0 -1 0
269 2 4.022328704299975 5.5027229586489605 0.7957962962821254 0 -1 0
513 1 5.560058344122711 4.084892911150734 1.2564661333652458 1 1 0
680 3 7.299112667454977 6.458114504583302 3.340601155738731 -1 1 1
1332 1 5.331573315658035 6.954321682037905 1.845211631165916 0 1 0
372 2 5.425917921336824 3.6544347482084785 3.051547968490288 0 -1 0
1327 1 8.427637976555904 5.285640058355296 2.003051338581471 2 0 0
1776 3 9.900433938087536 6.894137627178661 2.1192227797542476 -1 -1 0
2186 3 9.497740854880124 3.989035994108233 3.5187880257363227 1 -1 1
107 1 11.349361191144036 5.0928096316441795 1.700367853093233 1 0 0
268 2 13.213490813330731 4.254059499833221 2.22961594414024 -1 -1 -1
1851 2 11.987442597533573 6.383059547805548 3.6376574582317813 -4 1 1
2118 1 13.03787185306667 7.43100471939038 0.2542153834896316 1 1 1
2171 2 12.555618734002024 5.693435058631744 0.4783967856353136 3 0 1
302 1 14.271195463704732 4.9732834371589245 0.4158498816286119 -2 2 1
2256 2 17.529370689322047 8.202145309202226 2.156929159281969 0 0 1
1218 1 16.984915586847393 4.923262985103652 2.8062239946823637 -2 0 1
1095 3 15.311993032565551 6.675077781179469 1.4378068728815439 1 0 1
1806 1 16.3783142457118 8.602813010771015 3.416911758156669 -2 0 1
487 3 16.121795608406952 3.4185322665715656 1.06876242564733 1 2 0
2005 1 19.166885167422905 6.463684713787184 3.643839280080374 0 1 1
1368 2 19.208707904441127 2.960644568861933 2.2809159995959507 2 -2 2
598 3 18.530774088736933 5.833186923003075 1.5430030783082422 0 1 0
211 1 21.98188889174531 7.047597980656688 2.854565254583217 -1 0 1
1018 1 21.558003583287665 9.495776279658273 1.8414027847103012 -2 -1 1
1307 1 21.31019189415646 6.53971477733536 0.17430458849809688 0 -1 1
1431 1 2.790779255976923 7.859281972384782 3.036191336432636 -1 1 1
558 2 3.6721511564001057 7.934592695759781 1.471264099045338 2 1 0
947 1 3.9611285615303133 9.604519414206385 1.216075395257676 2 0 1
1877 3 6.23935401116568 8.670846244530484 0.5787568461171408 1 1 2
1617 1 8.436468681104257 8.330613393430458 1.4999248713479707 1 1 0
1298 3 9.743836901486185 9.69905128180966 0.4660025926208557 0 1 1
200 3 7.950434484087049 10.473392428570246 2.711465706349563 2 0 0
1679 3 10.541472199102351 10.555069559370956 3.6105077459894077 1 1 1
27 1 11.358862424540133 10.622924965261573 1.8127822749121136 -1 0 0
10 1 11.51243560633695 7.988282307219639 3.175185188293657 -1 1 0
1382 3 13.08573154625818 8.836543914318023 1.9944141631555654 -1 0 0
1321 1 14.175263664309444 9.95307301985268 3.506005229505307 -2 -1 0
822 1 14.712233903977285 9.60333700853361 0.5841050084198929 -1 -1 0
1772 2 15.575882260423514 10.335743785387425 2.8059961273674245 -1 0 0
442 1 16.65568324099846 11.283738133502858 4.3574894108522555 -1 0 -1
1951 2 20.897200048820196 7.768944891378385 1.7220877174699663 0 -1 1
261 2 20.300013032418146 10.540218108774223 2.5858236587058303 -1 1 1
1108 1 19.222992112646743 8.759427375079598 1.926802177121179 -1 0 0
190 3 2.726121289120921 11.417941157410093 1.0269790722774654 0 -1 0
1230 1 1.0343280615498898 11.856422256354177 2.5419760112604726 -1 -2 0
819 1 3.6827397377589413 11.952386721396413 3.0294802906392997 -1 -2 1
1664 2 2.2395398947395946 12.958665704062389 3.635371621967601 -2 1 0
2260 2 5.290148698291002 12.532632119870826 1.8476692422884309 0 1 2
718 1 4.097326174796478 12.60764960598599 0.260001651704477 0 0 1
1187 3 4.270723996647764 14.367010245700575 3.4490622025394315 0 1 1
2104 1 6.22472143364562 11.778730970585146 3.0693487355091826 1 0 2
1136 1 6.516715274014715 13.817298103391131 0.8561738622650712 1 1 -1
1829 1 6.597360689867486 14.54898956036573 3.829470826640429 0 1 2
121 1 6.975914498184613 10.64643422838374 0.6250121479123304 2 2 0
552 2 7.279846297996778 13.315283425390255 2.818269653461894 1 2 0
334 1 9.034840291865587 12.240425974272389 3.5749150189933165 1 0 0
1792 3 10.330349855965967 13.593776395123134 2.6928939701840453 0 2 0
1810 1 9.368752526666531 12.635783248888101 0.12004809041508949 -1 0 1
1607 1 12.861700757872404 13.339352296752432 2.4337238947443742 0 1 0
1876 3 13.454705189037183 11.562136367584841 0.6400215926295184 -1 -1 1
1927 1 15.487292481022997 12.033659523672759 1.8526378305639686 -1 0 1
595 3 15.051741607760768 14.023325900058897 3.422186972540245 2 0 1
244 1 17.79239021699946 14.247452974110425 2.8442675170858136 -1 1 0
1812 1 16.830039890189482 13.572323367683614 43.65012837353824 -1 0 1
778 3 21.87049106528804 11.944604917174397 5.485310397486651 1 0 0
2381 3 17.94524075560971 11.931852727907087 2.6522500310972323 -1 0 -1
2279 3 21.876425653892753 10.813124363205574 0.1341279355569428 -3 1 0
136 1 19.34211481139565 11.418817337384766 1.285517768524806 0 0 1
946 1 1.2599816310643837 16.925874142559774 1.552567697149677 1 -1 -1
255 2 2.635075459709839 16.184273659987188 2.1570123230272826 0 -1 0
985 3 0.145090339079544 13.7709584636752 2.3105364396017545 1 0 1
1002 1 2.4803232515363502 14.464370635571301 2.3605367063413163 1 0 0
280 3 3.550174054062815 14.818199636481648 0.11535030458079702 0 0 0
613 1 4.399203340877827 16.275121468942597 1.6736611361020026 1 0 0
496 3 3.796455267687946 16.40906295405712 5.97101686340589 -1 1 1
1182 3 6.5009150333311805 16.235535963927482 2.241997049299079 0 0 1
1722 1 9.122835444216246 15.424076365166453 1.705963659162368 1 0 1
2388 3 9.205705856310303 16.422823719348393 3.9381656100902025 -1 1 1
168 2 11.375667827840061 17.653704741769186 1.712584467828347 2 -1 0
836 1 7.059449657787621 17.38830901610607 4.205520758158438 1 1 1
2258 2 13.127068391149201 14.556660748734428 1.317996097375981 -1 1 1
604 1 12.047227249018077 16.1158446257652 2.270966900692069 2 0 1
1069 2 16.85626666912367 14.493675938874203 1.1815592102011272 -1 -1 0
1010 1 17.47323573480067 16.069144316581514 0.9569691811534023 -1 1 0
1231 1 14.961811531096272 14.95981443145201 1.1430688720335793 -1 0 1
560 2 17.40276789198845 17.825974044394545 1.1685432186079567 -3 0 -1
1086 3 14.152459289086726 17.12860360433873 1.321541715856221 -3 0 1
35 1 0.22093756032485395 14.165380260248728 0.1670730848555245 0 -2 0
682 3 19.486582761095473 15.904358812225354 1.5063810384603704 -2 1 1
1317 1 20.616581816841077 15.010895455725343 3.4313938105705644 -1 0 0
1506 1 19.312844268090664 18.01548503167413 2.0024404525837634 2 0 0
82 3 1.8171857075117588 20.345350681184375 43.98567213271572 1 0 -1
601 1 2.50607687734549 22.366060255561344 1.1841367054857406 -1 -1 1
1821 1 5.0956987048554465 22.073062261025907 1.9525281270016952 -1 -1 1
75 2 3.5412410489300763 21.287408884024735 2.569549419107645 1 -1 1
1800 3 3.868680534557207 18.2282944460803 0.27784732504535653 0 1 0
573 2 6.378274549424558 19.997625160065635 0.8801913465694516 2 0 -1
715 1 6.593081471326248 18.30638515934923 1.6126503901653786 0 0 0
880 3 8.756093190509098 17.9562285342861 0.5488773819124434 -1 1 0
1647 1 9.069768969190307 20.02132731425307 0.2401899841801879 -1 0 0
140 1 9.660743264961123 18.11100819142128 2.699195529042718 1 -1 1
1333 1 10.733750770613764 17.721316420671275 0.08095616018663065 0 -2 1
1932 1 11.363129676605213 22.03246485666456 2.1286393988551047 1 0 0
1882 3 11.042490507551268 20.238944178396565 1.0388393511639626 -1 0 2
1407 1 12.643880265619556 19.33093005209681 1.9507959827636325 -1 0 1
2121 1 16.75519778864284 18.900615616065334 2.4898943231903923 0 0 1
1040 1 14.877498145269694 21.792415234333323 0.5723591702767505 -1 -1 1
1233 1 15.512009183857476 18.7360505366295 43.97923188752457 0 -1 -1
1289 3 15.683460762846996 20.796690374924495 2.77203857554695 -1 -1 1
1123 1 19.2015705941114 20.115443290379936 4.330363263244312 -1 1 0
798 3 21.440642248170313 18.18619898905351 2.1063087952132857 0 -1 1
1198 3 20.460204987703143 21.96756294935005 0.20993882261261942 1 0 1
2030 1 0.010415613154332287 20.606408305626356 2.075132888344083 1 0 1
1053 2 18.558050882232788 20.025299178864493 2.3333163491065574 -1 1 1
1249 1 0.18375093693045771 18.874378973766685 43.72019760740764 1 -1 -1
924 1 3.6487622598802303 24.180001496906 43.875069909874135 1 0 -1
300 3 3.465337995613616 24.816577897254273 2.060161118832128 0 0 0
2168 2 2.2856573946755807 23.363759142074368 43.77117074885411 1 1 0
1694 3 6.305678586267968 23.746604853580813 2.439079057619669 -1 0 1
1930 1 7.2159174821336 21.020427165482143 2.551048492771574 2 0 0
2022 1 4.478416272828737 24.843921860760346 4.240074235101014 1 -1 0
83 3 6.689262604216928 24.8457154984271 43.21999933135855 0 0 -1
1378 3 8.641043159282917 22.03635002859775 1.0807720588310823 3 -1 0
1422 1 8.471850048184875 23.937603192339726 2.4908378779927136 -1 -1 0
2351 2 9.547244917545326 24.167336914788937 4.081062729599998 1 -1 0
225 1 13.914673266197244 21.41275459810691 4.078413993220691 1 -1 0
517 1 11.053303347331033 24.954659045645162 3.5596319785242745 1 1 0
796 3 13.700414926116341 22.68248125662551 2.025093889503985 0 0 0
903 1 14.811977179527403 24.493190458214567 2.0443098273564315 2 -1 0
2037 1 17.541048950281223 21.833007909630464 2.625058040918583 0 0 0
391 3 16.80287721987867 23.70395241272786 0.8284569738998057 2 -1 1
2026 1 0.7161408119542981 24.827961337844563 0.8023427142854836 0 0 1
2355 2 21.307333994329998 24.69977368102452 1.6726200995136606 2 0 1
1609 1 18.821150629108665 20.603932721345206 0.5811255643083197 0 -1 0
2070 2 21.85742089927164 25.322824860047337 43.40701974400133 -1 0 -1
1254 2 1.9750630821126263 27.717510929034948 43.53852436529398 1 -2 0
1350 1 3.399462598224111 27.262828585725956 1.3441341099971784 0 0 0
1428 1 1.4562602150481683 26.88819097158655 3.766825420929405 1 0 1
823 1 21.601299632476092 26.791528752791123 42.83100021325184 -2 0 -1
336 1 5.639074828804892 25.305485278797022 1.096890410227567 1 -1 0
1560 2 4.401434549266012 26.535111491949895 0.0968044015351386 0 0 0
1409 1 5.503153163089634 27.80860573261564 43.457466659081895 -1 -1 0
153 2 6.66818436958943 29.355109821202497 43.39983686956361 2 1 -1
2185 3 10.657393424376295 24.360850532091156 1.154480090648664 1 0 1
1057 2 7.856394467976646 25.895734162135426 1.4892736779126383 3 -1 0
2323 1 8.544587158832126 25.779167657187116 43.92903099365061 0 1 0
1885 3 13.162359675700039 25.332106094303672 2.971326224035332 2 0 0
438 1 12.71764118649656 26.664603632163026 1.1239629775809687 -1 1 0
2057 2 11.513611839104152 28.206977072506234 1.2575107147643176 1 -1 0
951 2 14.604913255857241 27.917638959450375 1.7541273847386647 1 -1 0
538 1 9.703170273249603 27.60648313675382 1.9200526442955024 1 -1 1
316 1 17.766589699147477 24.79751656235482 2.2801140144527805 2 0 -1
1667 2 15.968202230124422 25.491419312954246 2.9266909778796895 0 1 1
1296 3 18.84752390354938 25.71014103678839 3.996345002851628 -1 0 1
539 1 14.59782474802537 27.026921782678784 3.676822246738204 0 0 0
1500 3 19.763160659327024 26.669195586806516 0.4702943197870678 0 1 2
2344 1 20.774642188088226 26.539034239580268 2.3358444913770504 -1 2 1
335 1 0.6439135089021896 28.431738012659963 1.158234135748703 1 0 -1
264 2 0.7015216223769324 26.96015724421037 1.941201962162549 1 0 1
98 3 1.1192047107643726 30.513574851986636 0.6332627862658469 0 -1 0
747 1 2.4381773823396617 30.56490810713919 2.4211777426223495 1 0 0
1588 3 2.890600793178598 0.017138401922807134 2.6294495403668168 2 0 1
686 3 0.4143832150034417 31.691366014029498 3.773620919948433 1 0 1
1190 3 4.306923248757208 29.403057087813604 0.6189918219319732 1 0 0
1226 1 5.460292430628956 29.722469855269907 3.0456952930242696 0 -1 0
2387 3 6.617682156613443 31.373613220269124 2.0965389520747832 1 -1 1
2242 1 5.579865129798286 31.072089092056284 0.07976892557455913 -1 -2 1
1260 2 9.392100728612293 28.960987918415718 0.39736112361436715 1 -1 0
2255 2 8.09373153073976 28.215725694587977 2.643258685877391 -2 1 1
130 1 11.098129759759978 29.87540239356235 2.1870428607825 0 -1 0
444 1 7.678696622247761 29.167163891746632 1.164773490124238 0 1 1
2053 2 11.27491603048831 31.827008754011906 3.3639298168402845 -4 -3 0
2249 1 13.866384437831377 29.48832467401396 1.6014835006182917 1 0 2
1406 1 11.434063882682064 32.976807545213944 2.141625711758424 -1 -1 1
1079 3 11.7484190452173 30.893452072993597 0.5359990050720176 0 1 1
1892 3 14.1379238870372 31.33429010872141 2.8891793256060705 0 -2 0
510 1 15.338813740076246 32.138034275622395 1.5298039931524878 0 0 0
295 3 16.804564227227626 30.454783178473594 1.9641237441826755 0 -1 0
2322 1 18.741452149965085 30.93006144378618 2.2977337824426316 1 0 1
408 1 19.07619277004516 28.450112556138194 43.96251854717187 0 0 0
142 1 21.803814650582474 31.844955173044987 1.5874134728775968 0 -1 0
1284 3 20.48962788637488 29.75877138708536 1.9687826551969203 1 0 0
592 3 18.6841958184211 30.61753921776586 0.1450171866284103 -1 0 0
1202 1 2.750867043506635 1.4819869636787801 6.18141890377021 2 1 1
2066 2 1.7083198159666815 3.092345314982731 6.469367513609915 1 0 0
2398 3 4.188893810286171 1.6959786185863575 4.765866271460573 0 1 1
1246 1 4.762527467920073 32.5914602698681 3.7098974338453345 -1 -1 0
1165 2 7.061988518640082 2.3374401462202608 7.305627558217418 1 0 0
146 1 8.827290828647076 2.8261358961831298 5.661338041041422 1 2 0
1581 3 9.344464179826389 0.4348106438485373 6.224016833530285 -1 1 1
404 1 8.371896398939398 1.6621603769417015 8.257374672770995 -4 2 0
360 2 13.184893701111168 1.9650020123963372 4.73745654233597 2 1 0
1310 1 11.760438399177554 2.8843622376762497 3.960584163702258 1 0 1
905 1 14.626874010995966 3.069913063810347 2.85100679406437 0 -1 -1
618 1 14.510212169400145 0.2920356764154361 4.2886320729567196 0 0 0
2133 1 15.65449772971149 2.255096454335386 5.901285794601551 0 1 0
173 2 15.766041916269153 0.5117556687319529 5.473702738596287 1 0 -1
2017 1 17.774544886275095 0.4161640712403183 4.25645075535598 0 0 0
1697 3 21.73116718660251 2.3447451071929013 3.8963959038900717 -1 1 0
2062 2 19.11022619481927 1.8174856340334993 5.225686090967456 1 1 1
532 1 20.62997710496251 1.8331994739710165 6.0878040749148745 0 1 0
1960 2 21.189094304445227 2.3926203847210847 7.703159897254672 1 -2 0
1048 1 2.8439908462224857 5.784574478330085 5.038411036986595 2 2 1
1999 3 1.9309831936688535 5.174745297733404 7.391694824850092 1 0 1
292 3 1.2819748319246238 7.2722140005239195 4.656109848347797 0 -2 -1
528 1 0.659989547335449 3.731181109521015 5.341243087021294 0 1 0
314 1 3.79330500704835 3.9153812779185686 7.074588587959692 0 2 -1
2049 1 6.217564375023486 3.6763820605066795 6.384497546909904 0 1 1
542 1 5.380492631041632 5.151115894623445 4.0636709698533755 2 1 0
759 2 4.791478773645664 5.075730658469998 5.724113590165288 0 2 0
2329 1 5.109702562575262 6.117664312682396 7.042575771011671 2 1 1
2080 3 7.1465478031237835 7.392100925843701 7.044084113772785 0 0 1
655 2 7.437995982689069 3.5268347750401703 5.101251036210841 -1 -1 0
1780 3 4.407799243085371 7.83459209723518 5.673254285517715 0 2 1
1735 1 7.692108069377918 5.838630740637634 5.4007133209794524 0 0 0
1486 3 9.417411108475262 4.908359317804151 6.685064161007101 -2 0 1
431 1 10.754762091333308 5.553458030038839 4.806443623631861 0 2 0
2325 1 13.679682572095375 6.297981919806378 3.078159235669743 -1 0 1
2088 3 12.322757679455338 4.157925584287861 5.418249183564075 0 0 0
1206 1 13.700514547094357 5.616787521442309 6.0772671248563235 0 0 1
684 3 15.463885930716971 4.556483385122932 4.4057011644935935 -2 0 1
1835 1 17.067789550389694 5.662965480782496 5.974532574056842 1 0 0
1931 1 19.257848270262105 3.173601980509557 4.25661354478134 2 1 1
164 2 21.001968999909813 4.322034056326128 6.328042936546548 -3 0 0
648 1 20.926777895392625 6.137193257432233 6.302858916862685 -2 1 0
462 2 18.255740718918148 5.036359990009375 4.41878407712088 1 1 0
347 1 2.1918683433038035 7.6828773556024785 7.211563002118961 -1 1 -1
2087 3 1.555065174271341 9.792139220881866 3.374531347114426 2 0 0
1840 1 0.22439309054135714 9.416462227291657 5.0235653540358385 1 -1 0
1653 2 0.7860917105607929 7.811461440668086 8.64681697506168 0 1 0
2042 1 3.640505189505925 9.946718459304908 5.232265959549202 0 0 1
2073 2 4.482956007483551 10.289237929734247 6.893422147571126 0 0 -1
831 1 6.296020243381071 8.409022985246864 4.631190799747833 -1 1 1
1397 3 4.871771206145961 9.883344129840237 3.3677678469625865 -1 -1 1
1515 1 8.19328918227776 9.505087325327667 7.355808120867225 2 -1 -1
2100 3 9.455657990902127 7.7333260172816045 5.604058067017154 2 -1 1
2024 1 9.003212049685127 9.26438861759515 4.269116707322808 -1 0 0
2063 2 7.205821621921012 9.69918446253674 5.802533661123153 1 0 0
2152 2 9.129388661416987 10.745101253863147 8.417633161033667 1 0 1
1083 3 13.72378074203841 8.006574313933537 4.682711827786466 0 0 0
79 3 13.307789549775544 11.69733541580573 3.7384088369885022 0 0 0
240 1 12.51794266997231 8.947830884795065 6.517093917626163 0 0 0
1315 1 15.29040412562052 8.443750467911475 6.109675868565685 0 0 0
659 2 16.34774633740228 9.640533556050155 5.024124320878642 -2 -1 -1
960 2 14.544940483640891 9.059048587105345 7.597918594726032 -2 1 1
1649 1 17.770848264688308 10.66037846627628 7.491661321891946 -1 1 1
939 1 18.471447499492733 8.671226362875034 5.771945903380503 -2 1 0
88 3 20.80277098017817 7.921315237292711 4.799633942315039 -2 0 1
399 3 19.12943669711593 10.907756970241529 5.717543303532315 0 0 0
319 1 21.031688144441134 8.414218899408157 8.19443498286226 0 -1 0
1489 3 4.276629839760566 12.089291312302974 5.312869492241198 2 -1 1
343 1 1.1117043389141466 13.802218671311577 4.9827370016411825 1 0 -1
2382 3 1.5273219517830894 9.783402332973786 6.779465179858882 2 0 0
1862 2 21.88687926845514 12.889538595885059 8.550074628560512 -2 1 0
1576 3 6.189582286463994 15.130338390970904 5.99885300988157 1 -1 1
149 1 6.40425442747417 11.144802503247345 5.739565218869275 0 0 0
1632 1 3.8305423162513503 14.020191527876618 5.614449654071966 -1 0 0
1414 1 8.957523782415395 12.139917107182084 7.533613572902025 0 0 1
1993 3 8.450460756921458 12.573674539430282 5.5547173384731545 0 -1 0
1541 1 8.114902179938328 14.523911709098053 6.478862282897576 0 -1 0
1418 1 11.316919623980393 11.759434546113182 5.3239294453357795 0 1 1
389 3 12.161130713447928 13.635476227799572 5.5500342729323435 1 0 0
1994 3 12.763477378042904 11.146754208658344 6.635724097680527 0 0 0
923 1 13.241804995413856 15.50358230806312 6.310771789580048 1 0 0
1192 3 16.6123824204132 12.154165803928127 6.430777155976435 0 0 -1
234 1 14.352365788303292 12.807420342659288 5.127693532035845 1 0 -1
1193 3 15.06250330424561 14.651660687031256 6.041217582597505 -1 -1 -1
1344 1 20.03109256320244 12.018528446229391 4.218819699699283 -1 0 0
2286 3 19.251729851270042 13.91380695298056 4.698364925498989 0 1 0
2217 1 19.660229900997034 12.577205968618392 7.293349214075126 -1 2 1
501 1 3.0457446963008628 17.146780825199233 4.259421151140353 0 0 -1
281 3 0.6029397287544027 16.00327479678161 4.134926318977245 1 0 0
1080 3 2.2137330961283816 14.063206123599384 6.877464106103678 0 1 0
242 1 1.4105138187757458 16.238294785523546 6.4807788643847175 0 1 0
888 3 1.0445140554900334 18.586156957126917 6.4383233544503 2 -1 -1
865 2 4.778843260749725 17.37041152224298 8.431680305928603 -3 0 0
645 1 3.73670012999935 18.81344825370989 6.913077958049987 -2 0 0
401 1 10.53533959250586 15.077259307073394 4.617528792412534 1 0 0
967 2 9.743919680669457 15.405179547834564 6.296039300689773 1 0 1
2127 1 9.687071058059452 17.695611665632594 5.770251893238183 1 0 0
1077 3 6.393338409000953 18.90155525800534 5.985461502676754 1 0 0
2097 3 12.552493582332039 16.693512770147805 4.48626925547376 0 0 2
1436 1 14.789071486122388 16.14076421893192 4.103131159928394 -1 0 1
1092 3 16.864119673351006 15.945529565283815 3.7528257931174607 1 0 1
1510 1 16.133802786590095 16.93185457159542 7.149032385721027 -1 0 1
310 1 17.129172297250093 14.415179424048011 5.9029979389088565 0 0 0
2175 2 17.753694130127798 15.648199142391231 7.075468735425889 0 -2 1
1441 1 19.460637758340503 16.494741471261023 7.102426995881248 1 1 0
1794 3 19.772993106236658 18.12194886446968 5.362219669072582 -2 0 0
1613 1 3.342802983822436 19.315492675707166 2.206132422570183 -2 -1 1
2190 3 0.9036270011690754 22.35050976575351 2.6069604791471286 2 -1 1
812 1 21.961949160806682 18.144363697518905 4.525392451996192 -2 0 0
1964 2 1.9672120142378322 18.401875090444115 3.4655507253882045 0 0 1
246 1 1.8271039434842857 20.204834633524708 4.77039975429844 -1 -1 0
2376 3 1.6982748481355714 22.223928828455396 5.478434376208007 1 2 1
1992 3 4.899488497637792 18.328840477941174 3.1596048367966443 0 0 0
1508 1 5.659341848888369 19.840891450622355 4.141004079322462 1 0 0
2059 2 3.7556525054529826 20.3102672855302 5.512243247217487 -2 -2 0
861 2 5.903563628295836 21.498143076659264 3.5922931773862055 -2 0 0
183 3 8.433444425196532 21.509083703794992 4.167229079677402 0 -1 0
473 2 7.340720441898636 18.95506509843604 3.1403923713715116 0 1 0
1611 1 8.273640392410355 20.09284943778039 5.545706177936552 0 0 1
2394 3 9.050398315855501 19.901977522472045 7.554061130611242 2 1 1
266 2 9.833118638631657 19.432587546208172 5.087682007603269 -3 1 0
235 1 6.886997048198501 23.018254756242218 4.906038269526921 0 0 0
1674 2 12.819165457829685 19.76947846631185 3.683985887911722 -2 1 1
448 1 13.241154769623849 18.946714084831452 5.377327128441593 -2 1 0
1656 2 14.680578340292252 20.63932607089599 5.65020793407877 -1 1 1
1651 2 12.169466086986192 20.005381206887822 6.193658102458605 2 0 0
630 1 11.12298963311438 20.30670827264253 4.5901585399814655 -2 1 0
11 1 12.919860595763996 21.520809981665206 6.493755562520895 1 -3 1
22 1 16.27764281095275 19.88671005642603 5.344020223625739 0 0 1
2052 2 17.60117327538743 19.12303542043357 4.206907603485603 -3 0 1
2035 1 17.884918009845393 17.631923396044428 4.8125673033615595 -3 0 0
1383 3 17.199714874334205 21.192926877411264 7.395450415071026 2 1 1
1979 3 21.362188605563517 20.20258142579927 4.245692519255367 0 0 1
1128 1 1.0973578353144047 24.089580906464548 3.982599771981288 0 -1 0
182 3 2.4568796359460636 25.127896548673917 5.081071162210648 1 1 0
1786 3 0.817268526034361 23.56736632263489 7.964550604551651 2 0 0
1837 1 2.646161400882619 23.297218129768538 7.074178024187407 0 -2 0
2277 3 6.242925639399122 25.668978623105215 5.090243634103624 -1 0 1
2216 1 3.5127965748586636 22.0141584531718 4.299427656997909 0 0 0
1303 1 6.463659070237604 24.897097099107114 7.02248572081048 -2 -1 0
2177 3 8.275735408587353 23.58528835144246 6.40701912724769 3 1 0
2202 1 10.077654064066259 22.83588348674542 5.090460486705889 -2 -1 0
2075 2 11.441767473014743 21.98475490197865 3.891570162129382 0 0 1
2251 2 14.002566241074518 23.285993110455316 6.335188108954736 2 1 1
1923 1 13.578458015993691 24.484492390868073 4.913107409607688 -2 -2 0
1181 3 11.66586005156998 24.621003491438486 5.885705371132147 0 1 0
1374 2 18.912021557112094 23.25916327394903 2.9891323922264164 -2 0 1
1592 3 17.455437982738797 21.713593243921974 5.049313003971805 -1 1 1
464 2 16.86129269807275 24.473421925270397 6.242186510188731 0 1 0
721 1 15.607023245075707 22.59309573300042 6.617899910450783 2 -2 0
824 1 19.198678224286763 21.664490118565354 8.243086983179582 1 1 0
1116 1 21.114064047875654 22.218053215141083 5.468996478487043 2 0 0
1125 1 20.637411174810776 23.319300515007505 2.8220424805807545 0 0 0
1642 1 20.211923907120106 25.53128514319285 5.381374197388828 0 0 1
475 2 21.19933940275379 23.71715343334873 4.404156207537285 0 0 1
1148 1 18.231972555182875 23.490056267195328 4.9929470547911885 1 0 1
1968 2 1.6415174602868123 29.25523483391426 3.1668914066868243 -1 0 1
402 1 2.8432609648349003 28.947886808661526 4.637200707720259 -1 0 0
830 1 2.327856414897205 26.629719639262063 6.726348747548366 1 0 0
1872 2 3.73007984949837 27.783279391971554 7.332868945425694 0 -1 1
956 2 1.7483351383123427 27.681249998315188 5.293244270246905 1 0 0
580 3 4.750675630003947 27.640732398214002 3.2984843553185947 0 0 1
743 1 6.780381539606403 26.643353644034146 2.9956343059808748 2 -2 0
1404 1 4.9479332788249115 27.36491079359622 5.923474568234767 -1 -2 1
192 3 6.316840720974152 29.017472217820536 5.3669537226363095 -2 0 0
2367 2 10.578139954945122 26.52749029473437 3.1907004423999936 1 0 0
1156 2 9.493607559047437 27.337653521620094 5.8717732521846955 3 1 1
1935 1 9.377528560279137 25.525729626168072 5.8473026260934295 0 0 1
1227 1 8.200708885984076 27.824785158610737 6.930897018017767 1 1 0
1537 1 8.427053168931947 29.134332837692273 4.264250854338596 -1 1 0
493 3 10.332326265604298 29.551170881584714 4.21680283183508 1 0 0
248 1 11.047419097974785 27.371499463527112 4.6561266858596335 -1 0 1
2193 3 13.167173354813865 28.831117970320825 4.0648223321337325 2 -1 0
1393 3 14.80478196729469 26.182659259293047 5.868656371427697 0 -1 1
2231 1 14.130454814711971 28.263129966000847 6.323473100199157 -1 1 2
1203 1 16.97350315191118 25.889461016761647 5.2799031150101365 0 0 0
395 3 21.38516676438657 27.412929614660975 4.228550779023444 -2 -1 -1
1933 1 0.22615521792376306 27.925086422299994 6.5603750207809854 0 0 0
1456 2 4.3615789642873395 30.697000459252763 4.1319195985163075 -1 1 1
1157 2 3.1354048216939527 32.901978059233834 6.092772526720797 2 0 1
895 3 1.5866713400711279 29.74535980744715 6.370759098865575 0 1 0
2105 1 2.023433291484656 31.753524706294893 5.557504955047374 2 0 1
254 2 6.095758591530321 32.68412158674258 5.090923513789258 -1 1 0
2006 1 5.815957444038133 0.812963769886753 6.388511500155919 1 2 2
1124 1 5.134526250113881 30.862150693894936 5.63811424814827 0 0 0
1550 1 7.969227830254061 32.83519662869334 4.865154587534768 2 -1 1
711 1 10.307686322206099 31.81142241495249 4.808126475871535 0 -1 0
1199 3 8.718984279272513 30.83771294591162 5.883119543574915 0 2 1
1939 1 10.623067251144986 29.663061111715585 6.721185352292267 0 0 0
40 1 11.370055858383587 32.727471969724114 7.816020924648824 1 0 0
2064 2 11.812165284259581 31.435965996693557 6.337660657840178 3 -2 0
333 1 12.447046531152932 30.73611980681077 4.350699465193453 -2 -1 0
1105 1 13.288507992898081 30.741341974469584 7.084410077762844 -1 0 0
1894 3 12.308018452326374 28.39480770691582 7.214067531349434 -2 -1 0
452 2 14.448538421525749 30.90778091417674 5.762339361225837 0 -1 -1
979 3 17.90803586553805 31.278728252411682 5.291729239268781 -2 -2 0
1447 1 15.68530778994261 30.045788080783428 4.162020924508012 -1 1 0
678 3 16.959241958163524 28.45696227892379 5.244567629957946 -1 -1 1
1516 1 15.87923731009483 31.960299903968007 6.2853821873583975 0 1 1
944 1 20.37103225112949 31.97167429673491 4.582711251094428 2 1 1
1795 3 20.58000912081767 32.88506963849931 7.094479960580354 0 0 0
1034 1 19.326391891045503 28.79507259645824 5.588984148512923 -1 -1 0
1119 1 21.809557293432174 29.681821728663685 3.9993036254198304 0 0 0
1850 1 21.81830372780945 31.087908354756543 6.843379917613063 -3 -2 1
1754 2 20.78392281106137 30.453133080861825 5.326020427174032 3 -1 1
1746 1 3.3717484130407636 32.62658921690875 8.39548222026383 1 -1 0
1490 3 1.496546488624551 1.4337549645043002 9.393048971722651 1 0 0
2350 1 21.357716812082735 0.9465471174017009 8.84291207846193 0 1 1
1493 3 4.431402281895475 1.8084937971524624 7.885647092727954 0 1 -1
108 1 6.0800286277428155 31.912550385892473 9.279622714178778 1 0 -1
2122 1 3.06795855586459 3.0056408866194904 9.794483699308604 1 0 0
737 1 6.049316964631759 3.128313014898412 8.883968227011824 1 1 0
293 3 8.473281642605599 31.97482506135009 10.134656867749943 -2 0 0
1475 2 10.639400120061941 3.6483044988145656 11.514077756413908 0 1 1
102 1 8.457299878866003 0.595631518430884 11.25918241922745 2 0 -1
1602 1 11.190161036594285 4.742898098850429 7.984626054423224 1 1 1
1720 1 12.576746647530431 2.287016764634495 9.468676174456125 -3 1 1
536 1 12.614913197454445 2.26950008274168 6.439735590803746 1 1 -1
676 3 14.473575487884709 3.1864377227813994 7.757972940221411 0 -1 -1
1628 1 15.839892328014406 1.0594849063825642 8.996734835433257 -1 1 1
551 2 15.86058638187217 4.214232343650212 10.148165308681996 1 1 0
1265 2 16.99400117587089 1.4926126533182746 7.714558154100955 -1 0 0
1453 2 18.044165218371337 5.297455106233549 7.473249714878023 -4 1 0
1139 1 18.91171449907819 1.5026523416278053 8.279444133443604 -1 1 1