LAMMPS (29 Sep 2021 - Update 2)
OMP_NUM_THREADS environment is not set. Defaulting to 1 thread. (src/comm.cpp:98)
  using 1 OpenMP thread(s) per MPI task
Reading data file ...
  orthogonal box = (0.0000000 0.0000000 0.0000000) to (22.005245 33.007867 44.010489)
  1 by 1 by 1 MPI processor grid
  reading atoms ...
  2400 atoms
  reading velocities ...
  2400 velocities
  read_data CPU = 0.013 seconds
NEQUIP is using device cuda
NequIP Coeff: type 1 is element F
NequIP Coeff: type 2 is element Li
NequIP Coeff: type 3 is element Na
Loading model from FLiNa_f_pyt10.2
Freezing TorchScript model...
WARNING: Using 'neigh_modify every 1 delay 0 check yes' setting during minimization (src/min.cpp:188)
Neighbor list info ...
  update every 1 steps, delay 0 steps, check yes
  max neighbors/atom: 2000, page size: 100000
  master list distance cutoff = 7
  ghost atom cutoff = 7
  binsize = 3.5, bins = 7 10 13
  1 neighbor lists, perpetual/occasional/extra = 1 0 0
  (1) pair nequip, perpetual
      attributes: full, newton off
      pair build: full/bin/atomonly
      stencil: full/bin/3d
      bin: standard
Setting up cg style minimization ...
  Unit style    : metal
  Current step  : 0
Per MPI rank memory allocation (min/avg/max) = 5.112 | 5.112 | 5.112 Mbytes
Step Temp E_pair E_mol TotEng Press 
       0    998.44383   -10721.452            0    -10411.84    10345.173 
       1    998.44383   -10774.201            0   -10464.589    10345.173 
       2    998.44383   -10839.307            0   -10529.694    10345.173 
       3    998.44383   -10888.597            0   -10578.984    10345.173 
       4    998.44383   -10922.077            0   -10612.465    10345.173 
       5    998.44383   -10940.636            0   -10631.023    10345.173 
       6    998.44383   -10955.725            0   -10646.112    10345.173 
       7    998.44383   -10965.738            0   -10656.126    10345.173 
       8    998.44383   -10969.707            0   -10660.095    10345.173 
       9    998.44383   -10977.895            0   -10668.282    10345.173 
      10    998.44383   -10980.647            0   -10671.035    10345.173 
      11    998.44383   -10986.354            0   -10676.742    10345.173 
      12    998.44383   -10988.766            0   -10679.153    10345.173 
      13    998.44383     -10993.2            0   -10683.588    10345.173 
      14    998.44383   -10995.813            0   -10686.201    10345.173 
      15    998.44383   -10998.161            0   -10688.549    10345.173 
      16    998.44383   -11001.409            0   -10691.797    10345.173 
      17    998.44383   -11002.807            0   -10693.194    10345.173 
      18    998.44383   -11006.709            0   -10697.096    10345.173 
      19    998.44383   -11007.833            0    -10698.22    10345.173 
      20    998.44383   -11011.341            0   -10701.728    10345.173 
      21    998.44383   -11012.356            0   -10702.744    10345.173 
      22    998.44383   -11015.186            0   -10705.573    10345.173 
      23    998.44383   -11016.218            0   -10706.605    10345.173 
      24    998.44383   -11018.367            0   -10708.755    10345.173 
      25    998.44383   -11019.647            0   -10710.035    10345.173 
      26    998.44383   -11020.923            0    -10711.31    10345.173 
      27    998.44383   -11022.179            0   -10712.566    10345.173 
      28    998.44383   -11023.433            0    -10713.82    10345.173 
      29    998.44383   -11024.743            0   -10715.131    10345.173 
      30    998.44383   -11026.093            0    -10716.48    10345.173 
      31    998.44383   -11027.105            0   -10717.493    10345.173 
      32    998.44383   -11028.792            0   -10719.179    10345.173 
      33    998.44383   -11029.724            0   -10720.111    10345.173 
      34    998.44383   -11031.238            0   -10721.626    10345.173 
      35    998.44383   -11032.266            0   -10722.653    10345.173 
      36    998.44383   -11033.434            0   -10723.821    10345.173 
      37    998.44383   -11034.594            0   -10724.981    10345.173 
      38    998.44383   -11035.449            0   -10725.837    10345.173 
      39    998.44383   -11036.172            0   -10726.559    10345.173 
      40    998.44383   -11036.823            0   -10727.211    10345.173 
      41    998.44383   -11037.707            0   -10728.095    10345.173 
      42    998.44383   -11038.268            0   -10728.655    10345.173 
      43    998.44383   -11039.021            0   -10729.409    10345.173 
      44    998.44383   -11039.892            0   -10730.279    10345.173 
      45    998.44383   -11040.691            0   -10731.079    10345.173 
      46    998.44383   -11041.249            0   -10731.636    10345.173 
      47    998.44383   -11041.797            0   -10732.184    10345.173 
      48    998.44383   -11042.203            0   -10732.591    10345.173 
      49    998.44383   -11042.668            0   -10733.055    10345.173 
      50    998.44383    -11043.31            0   -10733.697    10345.173 
      51    998.44383   -11043.638            0   -10734.025    10345.173 
      52    998.44383   -11044.058            0   -10734.445    10345.173 
      53    998.44383    -11044.44            0   -10734.828    10345.173 
      54    998.44383   -11044.717            0   -10735.104    10345.173 
      55    998.44383   -11045.309            0   -10735.696    10345.173 
      56    998.44383   -11045.964            0   -10736.351    10345.173 
      57    998.44383   -11046.342            0   -10736.729    10345.173 
      58    998.44383   -11046.775            0   -10737.163    10345.173 
      59    998.44383   -11047.243            0   -10737.631    10345.173 
      60    998.44383   -11047.692            0    -10738.08    10345.173 
      61    998.44383   -11048.066            0   -10738.454    10345.173 
      62    998.44383   -11048.467            0   -10738.854    10345.173 
      63    998.44383   -11048.942            0    -10739.33    10345.173 
      64    998.44383   -11049.252            0   -10739.639    10345.173 
      65    998.44383   -11049.614            0   -10740.002    10345.173 
      66    998.44383   -11050.095            0   -10740.482    10345.173 
      67    998.44383   -11050.418            0   -10740.805    10345.173 
      68    998.44383   -11050.776            0   -10741.164    10345.173 
      69    998.44383   -11051.179            0   -10741.566    10345.173 
      70    998.44383   -11051.617            0   -10742.005    10345.173 
      71    998.44383   -11051.939            0   -10742.327    10345.173 
      72    998.44383   -11052.237            0   -10742.625    10345.173 
      73    998.44383   -11052.522            0    -10742.91    10345.173 
      74    998.44383   -11052.899            0   -10743.287    10345.173 
      75    998.44383   -11053.307            0   -10743.694    10345.173 
      76    998.44383   -11053.658            0   -10744.046    10345.173 
      77    998.44383   -11053.954            0   -10744.342    10345.173 
      78    998.44383   -11054.167            0   -10744.554    10345.173 
      79    998.44383   -11054.471            0   -10744.858    10345.173 
      80    998.44383   -11054.764            0   -10745.151    10345.173 
      81    998.44383   -11055.047            0   -10745.434    10345.173 
      82    998.44383   -11055.368            0   -10745.756    10345.173 
      83    998.44383   -11055.633            0    -10746.02    10345.173 
      84    998.44383   -11055.836            0   -10746.223    10345.173 
      85    998.44383   -11056.075            0   -10746.463    10345.173 
      86    998.44383   -11056.295            0   -10746.682    10345.173 
      87    998.44383   -11056.495            0   -10746.883    10345.173 
      88    998.44383   -11056.716            0   -10747.103    10345.173 
      89    998.44383   -11056.929            0   -10747.316    10345.173 
      90    998.44383   -11057.174            0   -10747.561    10345.173 
      91    998.44383   -11057.385            0   -10747.772    10345.173 
      92    998.44383   -11057.587            0   -10747.974    10345.173 
      93    998.44383    -11057.82            0   -10748.208    10345.173 
      94    998.44383   -11058.054            0   -10748.441    10345.173 
      95    998.44383     -11058.3            0   -10748.687    10345.173 
      96    998.44383   -11058.516            0   -10748.903    10345.173 
      97    998.44383   -11058.807            0   -10749.194    10345.173 
      98    998.44383    -11059.03            0   -10749.418    10345.173 
      99    998.44383   -11059.268            0   -10749.655    10345.173 
     100    998.44383   -11059.484            0   -10749.872    10345.173 
     101    998.44383   -11059.677            0   -10750.064    10345.173 
     102    998.44383   -11059.852            0   -10750.239    10345.173 
     103    998.44383   -11060.001            0   -10750.388    10345.173 
     104    998.44383   -11060.139            0   -10750.526    10345.173 
     105    998.44383   -11060.291            0   -10750.678    10345.173 
     106    998.44383    -11060.44            0   -10750.828    10345.173 
     107    998.44383   -11060.617            0   -10751.005    10345.173 
     108    998.44383   -11060.811            0   -10751.198    10345.173 
     109    998.44383   -11061.041            0   -10751.428    10345.173 
     110    998.44383   -11061.291            0   -10751.678    10345.173 
     111    998.44383   -11061.503            0    -10751.89    10345.173 
     112    998.44383   -11061.688            0   -10752.076    10345.173 
     113    998.44383   -11061.891            0   -10752.278    10345.173 
     114    998.44383   -11062.029            0   -10752.417    10345.173 
     115    998.44383   -11062.198            0   -10752.586    10345.173 
     116    998.44383   -11062.334            0   -10752.721    10345.173 
     117    998.44383   -11062.479            0   -10752.866    10345.173 
     118    998.44383   -11062.582            0    -10752.97    10345.173 
     119    998.44383   -11062.695            0   -10753.083    10345.173 
     120    998.44383   -11062.818            0   -10753.206    10345.173 
     121    998.44383   -11062.957            0   -10753.345    10345.173 
     122    998.44383   -11063.101            0   -10753.488    10345.173 
     123    998.44383   -11063.229            0   -10753.616    10345.173 
     124    998.44383   -11063.311            0   -10753.698    10345.173 
     125    998.44383    -11063.43            0   -10753.817    10345.173 
     126    998.44383   -11063.529            0   -10753.917    10345.173 
     127    998.44383   -11063.666            0   -10754.053    10345.173 
     128    998.44383   -11063.795            0   -10754.182    10345.173 
     129    998.44383   -11063.878            0   -10754.265    10345.173 
     130    998.44383   -11063.922            0   -10754.309    10345.173 
     131    998.44383   -11064.018            0   -10754.405    10345.173 
     132    998.44383   -11064.071            0   -10754.459    10345.173 
     133    998.44383   -11064.124            0   -10754.511    10345.173 
     134    998.44383   -11064.206            0   -10754.594    10345.173 
     135    998.44383   -11064.281            0   -10754.669    10345.173 
     136    998.44383   -11064.349            0   -10754.736    10345.173 
     137    998.44383   -11064.407            0   -10754.795    10345.173 
     138    998.44383   -11064.489            0   -10754.877    10345.173 
     139    998.44383   -11064.568            0   -10754.956    10345.173 
     140    998.44383   -11064.627            0   -10755.014    10345.173 
     141    998.44383   -11064.693            0   -10755.081    10345.173 
     142    998.44383   -11064.784            0   -10755.172    10345.173 
     143    998.44383   -11064.854            0   -10755.242    10345.173 
     144    998.44383   -11064.925            0   -10755.312    10345.173 
     145    998.44383   -11064.998            0   -10755.386    10345.173 
     146    998.44383   -11065.065            0   -10755.453    10345.173 
     147    998.44383   -11065.161            0   -10755.549    10345.173 
     148    998.44383   -11065.237            0   -10755.625    10345.173 
     149    998.44383   -11065.304            0   -10755.691    10345.173 
     150    998.44383   -11065.333            0    -10755.72    10345.173 
     151    998.44383   -11065.389            0   -10755.776    10345.173 
     152    998.44383   -11065.425            0   -10755.812    10345.173 
     153    998.44383   -11065.476            0   -10755.863    10345.173 
     154    998.44383   -11065.548            0   -10755.935    10345.173 
     155    998.44383    -11065.63            0   -10756.017    10345.173 
     156    998.44383   -11065.728            0   -10756.115    10345.173 
     157    998.44383   -11065.764            0   -10756.151    10345.173 
     158    998.44383   -11065.814            0   -10756.202    10345.173 
     159    998.44383   -11065.882            0   -10756.269    10345.173 
     160    998.44383    -11065.92            0   -10756.307    10345.173 
     161    998.44383   -11065.972            0   -10756.359    10345.173 
     162    998.44383   -11066.003            0    -10756.39    10345.173 
     163    998.44383   -11066.057            0   -10756.444    10345.173 
     164    998.44383   -11066.116            0   -10756.504    10345.173 
     165    998.44383   -11066.188            0   -10756.575    10345.173 
     166    998.44383   -11066.254            0   -10756.641    10345.173 
     167    998.44383   -11066.275            0   -10756.663    10345.173 
     168    998.44383   -11066.339            0   -10756.726    10345.173 
     169    998.44383   -11066.365            0   -10756.753    10345.173 
     170    998.44383   -11066.407            0   -10756.795    10345.173 
     171    998.44383   -11066.467            0   -10756.854    10345.173 
     172    998.44383   -11066.527            0   -10756.915    10345.173 
     173    998.44383   -11066.573            0   -10756.961    10345.173 
     174    998.44383    -11066.62            0   -10757.008    10345.173 
     175    998.44383    -11066.66            0   -10757.048    10345.173 
     176    998.44383   -11066.731            0   -10757.119    10345.173 
     177    998.44383   -11066.829            0   -10757.217    10345.173 
     178    998.44383   -11066.919            0   -10757.306    10345.173 
     179    998.44383   -11066.991            0   -10757.379    10345.173 
     180    998.44383   -11067.027            0   -10757.415    10345.173 
     181    998.44383   -11067.101            0   -10757.488    10345.173 
     182    998.44383   -11067.122            0    -10757.51    10345.173 
     183    998.44383   -11067.185            0   -10757.572    10345.173 
     184    998.44383   -11067.203            0   -10757.591    10345.173 
     185    998.44383    -11067.24            0   -10757.628    10345.173 
     186    998.44383   -11067.269            0   -10757.656    10345.173 
     187    998.44383   -11067.273            0   -10757.661    10345.173 
     188    998.44383   -11067.302            0   -10757.689    10345.173 
     189    998.44383   -11067.331            0   -10757.719    10345.173 
     190    998.44383   -11067.351            0   -10757.738    10345.173 
     191    998.44383   -11067.378            0   -10757.765    10345.173 
     192    998.44383   -11067.426            0   -10757.813    10345.173 
     193    998.44383   -11067.487            0   -10757.875    10345.173 
     194    998.44383   -11067.562            0   -10757.949    10345.173 
     195    998.44383   -11067.617            0   -10758.005    10345.173 
     196    998.44383   -11067.662            0    -10758.05    10345.173 
     197    998.44383   -11067.697            0   -10758.085    10345.173 
     198    998.44383   -11067.726            0   -10758.113    10345.173 
     199    998.44383   -11067.732            0    -10758.12    10345.173 
     200    998.44383   -11067.755            0   -10758.142    10345.173 
     201    998.44383    -11067.77            0   -10758.157    10345.173 
     202    998.44383   -11067.795            0   -10758.182    10345.173 
     203    998.44383   -11067.834            0   -10758.221    10345.173 
     204    998.44383   -11067.849            0   -10758.236    10345.173 
     205    998.44383    -11067.86            0   -10758.248    10345.173 
     206    998.44383   -11067.886            0   -10758.273    10345.173 
     207    998.44383   -11067.906            0   -10758.294    10345.173 
     208    998.44383   -11067.924            0   -10758.311    10345.173 
     209    998.44383   -11067.933            0    -10758.32    10345.173 
     210    998.44383   -11067.966            0   -10758.353    10345.173 
     211    998.44383   -11067.981            0   -10758.369    10345.173 
     212    998.44383   -11068.028            0   -10758.416    10345.173 
     213    998.44383   -11068.069            0   -10758.457    10345.173 
     214    998.44383   -11068.127            0   -10758.514    10345.173 
     215    998.44383   -11068.186            0   -10758.573    10345.173 
     216    998.44383   -11068.229            0   -10758.616    10345.173 
     217    998.44383   -11068.272            0    -10758.66    10345.173 
     218    998.44383   -11068.321            0   -10758.709    10345.173 
     219    998.44383    -11068.37            0   -10758.758    10345.173 
     220    998.44383   -11068.413            0   -10758.801    10345.173 
     221    998.44383   -11068.471            0   -10758.858    10345.173 
     222    998.44383   -11068.548            0   -10758.935    10345.173 
     223    998.44383   -11068.624            0   -10759.011    10345.173 
     224    998.44383   -11068.714            0   -10759.101    10345.173 
     225    998.44383   -11068.811            0   -10759.198    10345.173 
     226    998.44383   -11068.867            0   -10759.255    10345.173 
     227    998.44383   -11068.927            0   -10759.314    10345.173 
     228    998.44383   -11068.968            0   -10759.355    10345.173 
     229    998.44383   -11069.022            0    -10759.41    10345.173 
     230    998.44383   -11069.062            0   -10759.449    10345.173 
     231    998.44383   -11069.112            0     -10759.5    10345.173 
     232    998.44383   -11069.156            0   -10759.544    10345.173 
     233    998.44383   -11069.213            0     -10759.6    10345.173 
     234    998.44383   -11069.261            0   -10759.648    10345.173 
     235    998.44383   -11069.312            0   -10759.699    10345.173 
     236    998.44383   -11069.353            0    -10759.74    10345.173 
     237    998.44383   -11069.384            0   -10759.771    10345.173 
     238    998.44383   -11069.416            0   -10759.803    10345.173 
     239    998.44383   -11069.456            0   -10759.844    10345.173 
     240    998.44383   -11069.486            0   -10759.874    10345.173 
     241    998.44383   -11069.502            0   -10759.889    10345.173 
     242    998.44383   -11069.537            0   -10759.925    10345.173 
     243    998.44383   -11069.564            0   -10759.952    10345.173 
     244    998.44383   -11069.584            0   -10759.971    10345.173 
     245    998.44383   -11069.639            0   -10760.026    10345.173 
     246    998.44383   -11069.655            0   -10760.043    10345.173 
     247    998.44383    -11069.69            0   -10760.078    10345.173 
     248    998.44383   -11069.702            0    -10760.09    10345.173 
     249    998.44383   -11069.738            0   -10760.126    10345.173 
     250    998.44383   -11069.748            0   -10760.136    10345.173 
     251    998.44383   -11069.769            0   -10760.156    10345.173 
     252    998.44383   -11069.788            0   -10760.176    10345.173 
     253    998.44383   -11069.813            0   -10760.201    10345.173 
     254    998.44383   -11069.845            0   -10760.232    10345.173 
     255    998.44383   -11069.892            0   -10760.279    10345.173 
     256    998.44383   -11069.924            0   -10760.311    10345.173 
     257    998.44383   -11069.967            0   -10760.354    10345.173 
     258    998.44383   -11069.991            0   -10760.379    10345.173 
     259    998.44383   -11070.038            0   -10760.426    10345.173 
     260    998.44383   -11070.065            0   -10760.453    10345.173 
     261    998.44383   -11070.096            0   -10760.483    10345.173 
     262    998.44383   -11070.122            0    -10760.51    10345.173 
     263    998.44383   -11070.139            0   -10760.526    10345.173 
     264    998.44383    -11070.18            0   -10760.567    10345.173 
     265    998.44383   -11070.186            0   -10760.573    10345.173 
     266    998.44383   -11070.209            0   -10760.596    10345.173 
     267    998.44383   -11070.233            0   -10760.621    10345.173 
     268    998.44383   -11070.242            0    -10760.63    10345.173 
     269    998.44383   -11070.271            0   -10760.659    10345.173 
     270    998.44383   -11070.322            0    -10760.71    10345.173 
     271    998.44383   -11070.344            0   -10760.731    10345.173 
     272    998.44383   -11070.362            0    -10760.75    10345.173 
     273    998.44383   -11070.389            0   -10760.776    10345.173 
     274    998.44383   -11070.431            0   -10760.818    10345.173 
     275    998.44383   -11070.456            0   -10760.844    10345.173 
     276    998.44383   -11070.479            0   -10760.866    10345.173 
     277    998.44383   -11070.514            0   -10760.901    10345.173 
     278    998.44383   -11070.527            0   -10760.915    10345.173 
     279    998.44383   -11070.545            0   -10760.932    10345.173 
     280    998.44383   -11070.551            0   -10760.938    10345.173 
     281    998.44383   -11070.575            0   -10760.963    10345.173 
     282    998.44383   -11070.589            0   -10760.976    10345.173 
     283    998.44383   -11070.601            0   -10760.988    10345.173 
     284    998.44383   -11070.621            0   -10761.009    10345.173 
     285    998.44383   -11070.632            0   -10761.019    10345.173 
     286    998.44383    -11070.64            0   -10761.027    10345.173 
     287    998.44383   -11070.644            0   -10761.031    10345.173 
     288    998.44383   -11070.661            0   -10761.049    10345.173 
     289    998.44383   -11070.662            0    -10761.05    10345.173 
     290    998.44383   -11070.664            0   -10761.052    10345.173 
     291    998.44383   -11070.678            0   -10761.065    10345.173 
     292    998.44383    -11070.68            0   -10761.067    10345.173 
     293    998.44383   -11070.682            0   -10761.069    10345.173 
Loop time of 108.937 on 1 procs for 293 steps with 2400 atoms

97.7% CPU use with 1 MPI tasks x 1 OpenMP threads

Minimization stats:
  Stopping criterion = energy tolerance
  Energy initial, next-to-last, final = 
     -10721.4521484375     -11070.6796875   -11070.681640625
  Force two-norm initial, final = 52.865871 0.18383653
  Force max component initial, final = 4.4931550 0.052444387
  Final line search alpha, max atom move = 0.50000000 0.026222194
  Iterations, force evaluations = 293 517

MPI task timing breakdown:
Section |  min time  |  avg time  |  max time  |%varavg| %total
---------------------------------------------------------------
Pair    | 108.67     | 108.67     | 108.67     |   0.0 | 99.76
Neigh   | 0.18379    | 0.18379    | 0.18379    |   0.0 |  0.17
Comm    | 0.028105   | 0.028105   | 0.028105   |   0.0 |  0.03
Output  | 0.0086554  | 0.0086554  | 0.0086554  |   0.0 |  0.01
Modify  | 0          | 0          | 0          |   0.0 |  0.00
Other   |            | 0.04391    |            |       |  0.04

Nlocal:        2400.00 ave        2400 max        2400 min
Histogram: 1 0 0 0 0 0 0 0 0 0
Nghost:        4963.00 ave        4963 max        4963 min
Histogram: 1 0 0 0 0 0 0 0 0 0
Neighs:         0.00000 ave           0 max           0 min
Histogram: 1 0 0 0 0 0 0 0 0 0
FullNghs:      256514.0 ave      256514 max      256514 min
Histogram: 1 0 0 0 0 0 0 0 0 0

Total # of neighbors = 256514
Ave neighs/atom = 106.88083
Neighbor list builds = 14
Dangerous builds = 0
Setting up Verlet run ...
  Unit style    : metal
  Current step  : 0
  Time step     : 0.001
Per MPI rank memory allocation (min/avg/max) = 3.987 | 3.987 | 3.987 Mbytes
Step Temp E_pair E_mol TotEng Press 
       0         1000    -11070.68            0   -10760.585    10361.297 
     100    517.78956   -10898.472            0   -10737.908    5364.9714 
     200      581.503   -10877.487            0   -10697.166    6025.1253 
     300    648.99597    -10850.06            0   -10648.809      6724.44 
     400     739.2876   -10824.402            0   -10595.153    7659.9783 
     500    819.34172   -10793.019            0   -10538.945    8489.4428 
     600    902.45275   -10763.733            0   -10483.887    9350.5809 
     700    995.43526   -10744.194            0   -10435.515        10314 
     800    1029.4917   -10719.942            0   -10400.702    10666.869 
     900    1036.2366   -10707.307            0   -10385.975    10736.755 
    1000    1035.7931   -10713.299            0   -10392.104     10732.16 
    1100    1004.2729   -10720.667            0   -10409.247    10405.569 
    1200    972.87006   -10726.049            0   -10424.367    10080.196 
    1300    966.18939   -10721.172            0   -10421.561    10010.975 
    1400    999.88089   -10719.895            0   -10409.836    10360.063 
    1500     1000.781    -10707.58            0   -10397.243    10369.389 
    1600     1013.072   -10706.388            0   -10392.239     10496.74 
    1700     1004.542   -10712.317            0   -10400.814    10408.358 
    1800    952.57859   -10706.319            0   -10410.929    9869.9496 
    1900     979.4764   -10711.894            0   -10408.163    10148.646 
    2000    976.90531     -10700.6            0   -10397.666    10122.006 
    2100    1023.8616   -10702.611            0   -10385.117    10608.534 
    2200    1007.6707   -10702.491            0   -10390.017    10440.775 
    2300    989.46036   -10712.965            0   -10406.138    10252.093 
    2400    977.96841   -10721.928            0   -10418.665    10133.021 
    2500    974.73818   -10721.301            0   -10419.039    10099.552 
    2600    1014.3414   -10721.945            0   -10407.403    10509.892 
    2700    1016.1199   -10712.052            0   -10396.958     10528.32 
    2800    1006.4307   -10707.073            0   -10394.984    10427.927 
    2900    1030.2017   -10713.211            0    -10393.75    10674.225 
    3000     1012.744   -10712.815            0   -10398.769    10493.341 
    3100    997.77331   -10714.182            0   -10404.777    10338.226 
    3200     973.1021   -10710.067            0   -10408.313      10082.6 
    3300    994.24408   -10715.826            0   -10407.516    10301.658 
    3400    977.10797   -10714.326            0    -10411.33    10124.106 
    3500     993.6692   -10720.476            0   -10412.344    10295.702 
    3600    1001.9922   -10719.495            0   -10408.782    10381.938 
    3700    999.37331   -10711.438            0   -10401.538    10354.804 
    3800    999.41161   -10705.482            0    -10395.57      10355.2 
    3900    1014.5667   -10710.337            0   -10395.725    10512.226 
    4000    1024.2278   -10716.549            0   -10398.941    10612.329 
    4100    986.91785   -10709.862            0   -10403.824    10225.749 
    4200    983.79947   -10711.891            0   -10406.819    10193.438 
    4300    992.49345   -10710.742            0   -10402.975    10283.519 
    4400    1014.4225   -10712.519            0   -10397.951    10510.732 
    4500    1000.4671   -10712.729            0    -10402.49    10366.137 
    4600    976.85221   -10712.887            0    -10409.97    10121.456 
    4700    1007.5154   -10724.017            0   -10411.591    10439.166 
    4800    1001.5762   -10725.168            0   -10414.584    10377.628 
    4900    965.04123   -10711.514            0   -10412.259    9999.0787 
    5000     999.5492   -10711.922            0   -10401.967    10356.626 
    5100    1014.8339   -10708.886            0   -10394.191    10514.996 
    5200    1000.2611   -10702.974            0   -10392.798    10364.002 
    5300    972.61637   -10701.781            0   -10400.178    10077.567 
    5400    983.29744   -10707.477            0   -10402.561    10188.237 
    5500    1019.3724   -10713.136            0   -10397.033    10562.021 
    5600    983.71846   -10704.545            0   -10399.499    10192.599 
    5700    993.18238   -10711.142            0   -10403.161    10290.658 
    5800    975.74715   -10709.596            0   -10407.021    10110.006 
    5900     993.4371   -10719.066            0   -10411.006    10293.297 
    6000    993.40309   -10722.918            0   -10414.869    10292.944 
    6100    980.51107   -10710.521            0   -10406.469    10159.366 
    6200    997.90391   -10706.014            0   -10396.569    10339.579 
    6300    999.27237   -10707.165            0   -10397.296    10353.758 
    6400    988.19018   -10710.649            0   -10404.216    10238.932 
    6500    999.26015   -10721.926            0    -10412.06    10353.631 
    6600    985.42096   -10720.182            0   -10414.607    10210.239 
    6700    997.43104   -10717.123            0   -10407.825    10334.679 
    6800     1005.509   -10709.726            0   -10397.922    10418.378 
    6900    1013.4586   -10708.881            0   -10394.612    10500.746 
    7000    994.31117   -10707.689            0   -10399.358    10302.353 
    7100    969.16156    -10709.44            0   -10408.908    10041.771 
    7200    979.09742   -10713.524            0   -10409.911    10144.719 
    7300    1012.6949   -10711.474            0   -10397.442    10492.833 
    7400    1030.1582   -10711.378            0   -10391.931    10673.775 
    7500    1021.1704    -10711.82            0    -10395.16     10580.65 
    7600    1003.3107   -10711.052            0    -10399.93      10395.6 
    7700    1000.0068   -10715.296            0   -10405.199    10361.367 
    7800     964.2377   -10707.656            0   -10408.651    9990.7531 
    7900    1029.3147   -10719.929            0   -10400.743    10665.035 
    8000    1020.1393   -10707.578            0   -10391.238    10569.966 
    8100    999.86118   -10705.814            0   -10395.762    10359.859 
    8200    993.33978   -10710.327            0   -10402.297    10292.288 
    8300    994.72292   -10711.532            0   -10403.074     10306.62 
    8400     980.0785   -10707.472            0   -10403.554    10154.884 
    8500    996.17957   -10711.089            0   -10402.178    10321.712 
    8600    997.04008   -10703.834            0   -10394.657    10330.628 
    8700    1028.3724   -10701.894            0       -10383    10655.271 
    8800    1040.3227   -10711.717            0   -10389.118    10779.093 
    8900    1013.1483   -10714.413            0   -10400.241     10497.53 
    9000    1000.9939   -10714.196            0   -10403.793    10371.595 
    9100    981.46603   -10708.722            0   -10404.374    10169.261 
    9200    1016.6334   -10721.508            0   -10406.255     10533.64 
    9300     952.6732   -10707.346            0   -10411.926    9870.9299 
    9400    1024.2156   -10730.483            0   -10412.879    10612.202 
    9500       992.77   -10711.405            0   -10403.552    10286.385 
    9600    981.95077   -10699.329            0   -10394.831    10174.283 
    9700    1013.4997    -10705.29            0   -10391.009    10501.171 
    9800    999.44791   -10705.323            0   -10395.399    10355.577 
    9900     981.3134   -10709.744            0   -10405.444    10167.679 
   10000    970.47604   -10714.534            0   -10413.594     10055.39 
   10100    971.12178   -10724.902            0   -10423.762    10062.081 
   10200    980.90997   -10725.849            0   -10421.673    10163.499 
   10300    989.28515   -10714.416            0   -10407.644    10250.277 
   10400    993.15581   -10709.272            0     -10401.3    10290.382 
   10500     997.0737   -10704.812            0   -10395.625    10330.977 
   10600    1007.5036   -10707.529            0   -10395.107    10439.044 
   10700    1002.4724   -10708.737            0   -10397.876    10386.915 
   10800    990.92275   -10715.368            0   -10408.088    10267.245 
   10900    978.84473   -10714.739            0   -10411.204    10142.101 
   11000    1001.5513   -10714.001            0   -10403.425    10377.371 
   11100    1017.6041   -10708.268            0   -10392.714    10543.698 
   11200    1013.9299   -10707.475            0    -10393.06    10505.629 
   11300    985.33926   -10716.356            0   -10410.808    10209.393 
   11400     988.9272   -10719.131            0   -10412.469    10246.568 
   11500    982.14861   -10713.464            0   -10408.904    10176.333 
   11600    1012.8819   -10714.342            0   -10400.252     10494.77 
   11700    1004.3672   -10707.749            0     -10396.3    10406.546 
   11800    1021.2501   -10712.043            0   -10395.358    10581.476 
   11900    1013.3169   -10712.018            0   -10397.793    10499.277 
   12000    993.63115   -10713.725            0   -10405.604    10295.307 
   12100    984.08687    -10713.73            0    -10408.57    10196.416 
   12200      1013.46    -10713.56            0   -10399.291     10500.76 
   12300    997.36521   -10702.953            0   -10393.675    10333.997 
   12400    1007.5705   -10709.403            0   -10396.961    10439.737 
   12500    979.45422   -10717.242            0   -10413.518    10148.416 
   12600     994.9148   -10719.728            0   -10411.209    10308.608 
   12700    1010.0602   -10718.342            0   -10405.127    10465.534 
   12800    1009.6015   -10714.526            0   -10401.454     10460.78 
   12900    1028.6358   -10708.738            0   -10389.763    10658.001 
   13000    1036.8932   -10706.355            0    -10384.82    10743.559 
   13100    1007.1835   -10704.685            0   -10392.362    10435.728 
   13200    1012.3441   -10712.291            0   -10398.368    10489.198 
   13300    1006.9784   -10713.361            0   -10401.102    10433.602 
   13400    979.49537   -10707.289            0   -10403.552    10148.842 
   13500    996.78127   -10714.706            0   -10405.609    10327.947 
   13600     983.6666   -10712.015            0   -10406.984    10192.062 
   13700    982.84007   -10709.448            0   -10404.674    10183.498 
   13800    1009.3889   -10711.738            0   -10398.732    10458.578 
   13900    1017.2514   -10709.936            0   -10394.491    10540.043 
   14000    1007.5657   -10711.488            0   -10399.047    10439.687 
   14100    987.88869   -10717.665            0   -10411.326    10235.808 
   14200    979.14486   -10718.456            0   -10414.828    10145.211 
   14300    1006.3143   -10719.074            0   -10407.021    10426.721 
   14400    1024.3732   -10720.097            0   -10402.444    10613.835 
   14500    993.03135   -10714.091            0   -10406.157    10289.093 
   14600    987.75792   -10711.083            0   -10404.784    10234.453 
   14700    996.34085   -10707.396            0   -10398.436    10323.383 
   14800    1030.3038   -10707.962            0    -10388.47    10675.284 
   14900    1035.1651    -10700.61            0   -10379.611    10725.653 
   15000    1015.7061   -10707.616            0   -10392.651    10524.033 
   15100    992.17997   -10709.104            0   -10401.434    10280.271 
   15200    988.13984   -10712.945            0   -10406.528     10238.41 
   15300    981.07869   -10712.294            0   -10408.066    10165.248 
   15400    1005.3132   -10712.597            0   -10400.854    10416.349 
   15500    1015.5305   -10705.729            0   -10390.818    10522.213 
   15600    1019.1517   -10705.185            0   -10389.151    10559.734 
   15700    1011.9709   -10709.708            0   -10395.901    10485.331 
   15800    1014.9503   -10712.979            0   -10398.248    10516.201 
   15900    990.59584   -10708.765            0   -10401.586    10263.858 
   16000    1007.5247   -10711.505            0   -10399.076    10439.262 
   16100    1027.0625   -10705.791            0   -10387.304    10641.699 
   16200    1032.0255   -10703.122            0   -10383.096    10693.123 
   16300    1000.7152   -10704.617            0     -10394.3    10368.708 
   16400    995.51119   -10708.895            0   -10400.191    10314.787 
   16500    993.81004   -10708.933            0   -10400.757    10297.161 
   16600    1009.6317   -10707.987            0   -10394.905    10461.094 
   16700    1032.5027   -10707.935            0   -10387.761    10698.067 
   16800    1001.4613   -10707.367            0   -10396.819    10376.438 
   16900    1000.9518   -10718.018            0   -10407.627    10371.159 
   17000    987.07084     -10714.3            0   -10408.214    10227.334 
   17100    993.28187   -10712.625            0   -10404.613    10291.688 
   17200    1014.8577   -10707.412            0    -10392.71    10515.242 
   17300    1015.5021    -10702.55            0   -10387.648    10521.919 
   17400    1005.5302   -10705.213            0   -10393.403    10418.597 
   17500    988.11484   -10707.305            0   -10400.895    10238.151 
   17600     969.3631   -10708.146            0   -10407.552    10043.859 
   17700    1013.0084   -10717.374            0   -10403.245    10496.081 
   17800    1005.0982   -10712.403            0   -10400.727    10414.121 
   17900    982.01267   -10707.988            0   -10403.471    10174.925 
   18000    996.96104   -10712.968            0   -10403.815    10329.809 
   18100    975.42799   -10712.872            0   -10410.397    10106.699 
   18200    985.03235   -10714.541            0   -10409.087    10206.213 
   18300     990.9301   -10705.538            0   -10398.256    10267.321 
   18400    1020.8417   -10706.491            0   -10389.933    10577.244 
   18500    993.58517   -10704.191            0   -10396.086    10294.831 
   18600    979.81094   -10707.387            0   -10403.552    10152.112 
   18700    973.60783   -10703.795            0   -10401.884     10087.84 
   18800    970.36033    -10700.61            0   -10399.706    10054.192 
   18900    1012.0572   -10710.554            0    -10396.72    10486.225 
   19000    1019.6908   -10706.071            0    -10389.87    10565.319 
   19100    1015.0838   -10704.919            0   -10390.146    10517.585 
   19200     988.9668   -10708.442            0   -10401.769    10246.979 
   19300    999.64253   -10715.109            0   -10405.125    10357.593 
   19400    971.27768   -10710.439            0   -10409.251    10063.696 
   19500     993.6159   -10710.474            0   -10402.358    10295.149 
   19600    1035.4215   -10713.672            0   -10392.593     10728.31 
   19700     1008.921   -10711.869            0   -10399.008     10453.73 
   19800    1002.4273   -10716.641            0   -10405.793    10386.447 
   19900    969.40175   -10710.165            0   -10409.558    10044.259 
   20000    988.06153   -10712.579            0   -10406.186    10237.599 
   20100    1007.1335   -10714.227            0   -10401.919    10435.209 
   20200    999.08642   -10710.536            0   -10400.724    10351.831 
   20300    1003.5775   -10710.519            0   -10399.314    10398.364 
   20400    997.42696   -10712.119            0   -10402.822    10334.637 
   20500    980.05597   -10710.198            0   -10406.288    10154.651 
   20600    990.09413   -10714.938            0   -10407.914    10258.659 
   20700    1000.9151   -10709.983            0   -10399.605    10370.779 
   20800    1033.7417   -10712.569            0   -10392.011    10710.905 
   20900    1010.5813   -10712.342            0   -10398.965    10470.933 
   21000     982.2118   -10712.232            0   -10407.653    10176.988 
   21100    1007.1269   -10718.275            0    -10405.97    10435.141 
   21200    1001.5292   -10713.848            0   -10403.278    10377.141 
   21300    1008.0756   -10711.813            0   -10399.214    10444.971 
   21400    1026.3878   -10710.897            0    -10392.62    10634.709 
   21500    1029.6625   -10706.982            0   -10387.689    10668.639 
   21600    997.21003   -10705.527            0   -10396.297    10332.389 
   21700    986.16053   -10709.915            0   -10404.112    10217.902 
   21800    1018.7647   -10720.516            0   -10404.602    10555.723 
   21900    977.88741   -10708.337            0   -10405.099    10132.182 
   22000    971.81539     -10702.3            0   -10400.945    10069.268 
   22100    1002.9191   -10704.056            0   -10393.055    10391.543 
   22200    988.61895   -10701.141            0   -10394.575    10243.374 
   22300    1019.6896   -10717.993            0   -10401.792    10565.307 
   22400    985.07901   -10716.255            0   -10410.787    10206.696 
   22500    979.91923   -10713.815            0   -10409.947    10153.234 
   22600    985.68297   -10710.015            0   -10404.359    10212.954 
   22700    992.47812   -10704.521            0   -10396.759    10283.361 
   22800     1027.367   -10702.615            0   -10384.034    10644.854 
   22900    1052.4137   -10695.512            0   -10369.163     10904.37 
   23000    1027.0742   -10696.176            0   -10377.685    10641.821 
   23100    1026.7514   -10706.316            0   -10387.926    10638.476 
   23200    1010.9895   -10713.158            0   -10399.655    10475.163 
   23300    995.41246   -10716.698            0   -10408.026    10313.764 
   23400    971.80268   -10713.908            0   -10412.557    10069.136 
   23500    986.94007   -10712.762            0   -10406.716    10225.979 
   23600      997.343   -10704.999            0   -10395.728    10333.767 
   23700    1013.9798   -10710.059            0   -10395.628    10506.146 
   23800    1040.9861   -10722.183            0   -10399.378    10785.966 
   23900    976.33401   -10710.468            0   -10407.711    10116.087 
   24000    985.52138   -10713.905            0     -10408.3     10211.28 
   24100    1005.9694   -10718.813            0   -10406.867    10423.148 
   24200    998.55669   -10716.086            0   -10406.438    10346.342 
   24300    996.71861   -10713.867            0    -10404.79    10327.297 
   24400    1030.9227   -10714.959            0   -10395.275    10681.696 
   24500    1031.0061   -10707.215            0   -10387.505    10682.561 
   24600    1033.5491   -10712.356            0   -10391.858    10708.909 
   24700    997.61448    -10715.12            0   -10405.765     10336.58 
   24800    996.85224   -10717.734            0   -10408.615    10328.682 
   24900     1004.924   -10717.348            0   -10405.726    10412.316 
   25000    995.76882    -10707.21            0   -10398.427    10317.456 
   25100    1010.2726   -10705.285            0   -10392.005    10467.734 
   25200    1010.4044   -10709.088            0   -10395.766      10469.1 
   25300    994.25384   -10717.278            0   -10408.965    10301.759 
   25400    972.59603   -10713.114            0   -10411.517    10077.356 
   25500    1012.7674   -10715.213            0   -10401.159    10493.584 
   25600    1009.5366   -10710.519            0   -10397.466    10460.108 
   25700    1017.8882   -10714.465            0   -10398.823    10546.642 
   25800    999.95573   -10712.899            0   -10402.818    10360.838 
   25900    971.54138   -10708.806            0   -10407.535    10066.429 
   26000    974.31046   -10715.141            0   -10413.012     10095.12 
   26100    1002.8491   -10720.027            0   -10409.049    10390.817 
   26200    1002.8918   -10709.903            0   -10398.912    10391.259 
   26300    1005.4792   -10705.572            0   -10393.778    10418.069 
   26400    1004.9687   -10703.733            0   -10392.098    10412.779 
   26500    1002.0209   -10704.103            0   -10393.381    10382.236 
   26600    1002.1441    -10716.77            0    -10406.01    10383.513 
   26700    1007.0807   -10721.142            0   -10408.851    10434.662 
   26800    1007.7373   -10718.521            0   -10406.027    10441.465 
   26900    1000.0983   -10707.268            0   -10397.142    10362.316 
   27000    1032.6467    -10709.28            0   -10389.062     10699.56 
   27100    1002.2821   -10702.097            0   -10391.294    10384.943 
   27200    1006.7201   -10711.658            0   -10399.479    10430.926 
   27300    1014.1812   -10725.987            0   -10411.495    10508.233 
   27400    990.13432   -10715.882            0   -10408.846    10259.076 
   27500    1010.9104   -10714.535            0   -10401.057    10474.343 
   27600    995.84395   -10704.327            0   -10395.521    10318.235 
   27700    1010.0569    -10705.42            0   -10392.206    10465.499 
   27800    1011.9664   -10711.032            0   -10397.226    10485.284 
   27900     1006.619   -10722.899            0   -10410.752    10429.878 
   28000    985.59562   -10716.715            0   -10411.086    10212.049 
   28100    996.72395   -10713.362            0   -10404.283    10327.353 
   28200     1010.565   -10711.229            0   -10397.858    10470.764 
   28300    1017.9608   -10712.257            0   -10396.592    10547.394 
   28400     991.9573   -10720.309            0   -10412.708    10277.964 
   28500    975.68581   -10717.808            0   -10415.252     10109.37 
   28600    992.13498   -10714.564            0   -10406.908    10279.805 
   28700    1007.9908   -10710.017            0   -10397.444    10444.092 
   28800    1010.5884   -10706.445            0   -10393.067    10471.006 
   28900    1010.5811   -10706.554            0   -10393.177    10470.931 
   29000    977.60772   -10711.647            0   -10408.496    10129.284 
   29100    990.31844   -10715.978            0   -10408.885    10260.983 
   29200     1014.669   -10717.288            0   -10402.644    10513.287 
   29300    991.05849   -10703.985            0   -10396.663    10268.651 
   29400    1028.1695   -10708.376            0   -10389.546    10653.169 
   29500    1000.6588   -10706.904            0   -10396.605    10368.123 
   29600     1018.384   -10716.396            0     -10400.6    10551.779 
   29700    987.95231   -10710.691            0   -10404.332    10236.467 
   29800    997.27335   -10714.252            0   -10405.002    10333.045 
   29900      1031.49   -10716.858            0   -10396.998    10687.574 
   30000    1023.1815   -10703.762            0   -10386.478    10601.488 
   30100    1017.4705   -10706.002            0   -10390.489    10542.314 
   30200    994.91898   -10708.464            0   -10399.944    10308.651 
   30300    980.78004   -10706.648            0   -10402.513    10162.153 
   30400    982.44146   -10703.132            0   -10398.482    10179.368 
   30500    999.18642   -10700.992            0   -10391.149    10352.867 
   30600    1001.1026   -10701.611            0   -10391.174    10372.722 
   30700    1011.4514   -10718.445            0   -10404.799    10479.948 
   30800     980.0282   -10713.977            0   -10410.075    10154.363 
   30900     978.2414   -10707.927            0   -10404.579     10135.85 
   31000    993.57004   -10702.743            0   -10394.642    10294.674 
   31100    1017.0454   -10711.589            0   -10396.208    10537.909 
   31200    1010.5843   -10714.948            0   -10401.571    10470.964 
   31300    999.58096   -10713.104            0   -10403.139    10356.955 
   31400    988.09403   -10708.472            0   -10402.069    10237.936 
   31500    1020.5099   -10717.694            0   -10401.239    10573.806 
   31600    1000.6957   -10714.767            0   -10404.456    10368.505 
   31700    968.78303   -10716.999            0   -10416.584    10037.849 
   31800    963.11664   -10713.959            0   -10415.301    9979.1375 
   31900    1002.0255   -10712.942            0   -10402.219    10382.284 
   32000    993.62992   -10704.162            0   -10396.042    10295.295 
   32100    1003.2899   -10704.522            0   -10393.407    10395.384 
   32200    977.27568   -10703.381            0   -10400.332    10125.844 
   32300    999.05606   -10715.613            0   -10405.811    10351.516 
   32400    989.57328   -10708.941            0    -10402.08    10253.263 
   32500    1008.4719   -10698.852            0   -10386.129    10449.077 
   32600    1009.1457   -10699.703            0   -10386.772    10456.058 
   32700    1018.1777   -10713.646            0   -10397.915    10549.641 
   32800    986.73061   -10710.925            0   -10404.944    10223.809 
   32900    1018.5972   -10720.756            0   -10404.894    10553.988 
   33000    1005.3416   -10717.108            0   -10405.357    10416.643 
   33100    997.84318   -10709.968            0   -10400.542     10338.95 
   33200    1009.7395   -10706.977            0   -10393.861    10462.211 
   33300    1009.7347   -10705.905            0   -10392.791    10462.162 
   33400    1002.3025   -10710.862            0   -10400.053    10385.154 
   33500    974.47829   -10710.987            0   -10408.806    10096.859 
   33600    988.47607   -10714.078            0   -10407.557    10241.894 
   33700    1004.9565   -10709.726            0   -10398.094    10412.653 
   33800    1031.6612   -10709.681            0   -10389.768    10689.348 
   33900     1031.756   -10708.144            0   -10388.201     10690.33 
   34000    996.35065   -10709.406            0   -10400.443    10323.485 
   34100    1005.3955   -10718.158            0    -10406.39    10417.202 
   34200    1001.8128   -10716.931            0   -10406.273     10380.08 
   34300    1022.9048   -10719.258            0    -10402.06    10598.621 
   34400    1022.2466   -10716.674            0    -10399.68      10591.8 
   34500    994.88158   -10716.027            0   -10407.519    10308.264 
   34600    1000.2901   -10722.307            0   -10412.122    10364.303 
   34700    989.62616   -10714.788            0    -10407.91    10253.811 
   34800    1011.1954   -10707.203            0   -10393.636    10477.296 
   34900    1013.1647   -10707.475            0   -10393.297    10497.701 
   35000    1010.9637   -10710.259            0   -10396.764    10474.895 
   35100    991.66685   -10713.673            0   -10406.162    10274.955 
   35200    984.56855   -10717.392            0   -10412.082    10201.407 
   35300    989.04628   -10715.497            0   -10408.799    10247.802 
   35400    1004.8316   -10702.259            0   -10390.665    10411.358 
   35500    1007.0562   -10702.379            0   -10390.096    10434.408 
   35600    1003.3665   -10710.422            0   -10399.283    10396.178 
   35700     992.1669   -10712.633            0   -10404.967    10280.136 
   35800    993.43296   -10715.392            0   -10407.333    10293.254 
   35900    992.36071   -10711.888            0   -10404.162    10282.144 
   36000    1019.7426       -10710            0   -10393.783    10565.855 
   36100    1025.8569   -10713.382            0   -10395.269    10629.208 
   36200    977.74756   -10710.648            0   -10407.454    10130.733 
   36300    976.94379   -10710.566            0   -10407.621    10122.405 
   36400    1009.3258   -10714.816            0   -10401.829    10457.925 
   36500    1000.4327   -10709.767            0   -10399.537     10365.78 
   36600    998.67185   -10713.964            0   -10404.281    10347.536 
   36700    966.62334   -10718.007            0   -10418.262    10015.471 
   36800    987.70742   -10723.246            0   -10416.963     10233.93 
   36900    995.27918   -10715.941            0    -10407.31    10312.383 
   37000    990.68606   -10709.688            0   -10402.481    10264.792 
   37100    1009.4636   -10711.942            0   -10398.913    10459.352 
   37200    999.39662   -10707.138            0    -10397.23    10355.045 
   37300    982.07402   -10703.909            0   -10399.373    10175.561 
   37400    981.89241   -10715.314            0   -10410.834    10173.679 
   37500    984.86145   -10718.796            0   -10413.395    10204.442 
   37600     1004.069    -10718.14            0   -10406.783    10403.457 
   37700    999.77423   -10705.446            0   -10395.421    10358.958 
   37800    996.97958   -10701.603            0   -10392.444    10330.002 
   37900    1028.3614   -10714.254            0   -10395.364    10655.158 
   38000    982.25064   -10707.851            0   -10403.259    10177.391 
   38100    985.91061   -10710.922            0   -10405.196    10215.313 
   38200    1008.0899   -10714.124            0    -10401.52    10445.119 
   38300    1017.6535   -10711.622            0   -10396.053     10544.21 
   38400    1023.6321    -10708.95            0   -10391.527    10606.156 
   38500    998.80547   -10705.392            0   -10395.667     10348.92 
   38600    996.50186   -10713.863            0   -10404.853    10325.052 
   38700    953.55738   -10704.234            0   -10408.541    9880.0911 
   38800    988.23117   -10702.318            0   -10395.873    10239.357 
   38900    1011.6585   -10703.424            0   -10389.713    10482.094 
   39000    1004.3727   -10703.132            0   -10391.681    10406.604 
   39100    1024.7187   -10714.502            0   -10396.742    10617.414 
   39200    980.79607   -10710.278            0   -10406.138    10162.319 
   39300    984.14927   -10710.371            0   -10405.191    10197.063 
   39400    1035.7088   -10712.303            0   -10391.135    10731.287 
   39500    1034.9735   -10708.658            0   -10387.718    10723.668 
   39600    995.76315   -10701.973            0   -10393.191    10317.398 
   39700    983.65107    -10704.61            0   -10399.585    10191.901 
   39800    985.06459   -10710.807            0   -10405.343    10206.547 
   39900    974.44191    -10707.51            0    -10405.34    10096.482 
   40000    1037.9993   -10712.429            0    -10390.55    10755.019 
   40100    1022.2355   -10705.819            0   -10388.829    10591.685 
   40200    1015.8716   -10712.156            0   -10397.139    10525.748 
   40300    995.42645   -10712.715            0   -10404.038    10313.909 
   40400     966.6705    -10703.06            0     -10403.3     10015.96 
   40500    996.60158   -10707.499            0   -10398.458    10326.085 
   40600    1007.5298   -10706.143            0   -10393.713    10439.315 
   40700     1026.152   -10700.897            0   -10382.693    10632.265 
   40800    1032.0029   -10701.726            0   -10381.707    10692.888 
   40900    1014.4642   -10709.362            0   -10394.782    10511.165 
   41000    1012.0607   -10714.814            0   -10400.979    10486.262 
   41100    1001.5129   -10714.487            0   -10403.923    10376.973 
   41200    966.40195   -10706.029            0   -10406.353    10013.178 
   41300    1018.0611   -10721.314            0   -10405.619    10548.434 
   41400    995.26961    -10711.12            0   -10402.492    10312.284 
   41500    1010.6232   -10708.024            0   -10394.635    10471.367 
   41600    1014.4797   -10708.702            0   -10394.117    10511.326 
   41700    990.82891   -10711.527            0   -10404.276    10266.273 
   41800    979.06159   -10713.916            0   -10410.314    10144.348 
   41900    989.35526   -10710.729            0   -10403.935    10251.004 
   42000    1016.3191   -10714.197            0   -10399.042    10530.384 
   42100    996.49308   -10709.149            0   -10400.142    10324.961 
   42200    994.28314   -10713.274            0   -10404.952    10302.063 
   42300    993.86143   -10720.098            0   -10411.906    10297.693 
   42400    973.02297   -10715.826            0   -10414.097     10081.78 
   42500     996.5303   -10708.689            0    -10399.67    10325.346 
   42600    1001.5014   -10705.371            0    -10394.81    10376.854 
   42700    1024.8301   -10719.718            0   -10401.923    10618.569 
   42800    993.48064   -10716.959            0   -10408.886    10293.748 
   42900    989.65453   -10713.495            0   -10406.608    10254.104 
   43000    983.16217   -10708.006            0   -10403.132    10186.835 
   43100    1018.2278   -10708.197            0    -10392.45    10550.161 
   43200    1013.3626   -10697.916            0   -10383.677    10499.751 
   43300    1026.3015    -10708.53            0   -10390.279    10633.815 
   43400    1027.7616   -10716.517            0   -10397.813    10648.943 
   43500    985.58323   -10706.679            0   -10401.054    10211.921 
   43600    989.91867   -10708.658            0   -10401.689    10256.841 
   43700    991.79924   -10704.193            0   -10396.641    10276.326 
   43800    1051.3494   -10709.954            0   -10383.936    10893.343 
   43900    1002.2083    -10699.31            0    -10388.53    10384.178 
   44000    996.52291    -10707.12            0   -10398.103     10325.27 
   44100    1014.4298   -10717.044            0   -10402.474    10510.809 
   44200     986.5815   -10714.761            0   -10408.827    10222.264 
   44300    1010.9578   -10723.922            0   -10410.429    10474.833 
   44400    989.49099   -10720.611            0   -10413.775     10252.41 
   44500     994.5345   -10719.717            0   -10411.317    10304.667 
   44600    1002.9983    -10711.74            0   -10400.715    10392.363 
   44700    1017.5418   -10708.376            0   -10392.841    10543.053 
   44800    1009.7854   -10704.425            0   -10391.295    10462.686 
   44900    994.59107    -10708.53            0   -10400.112    10305.253 
   45000    980.95451   -10713.559            0   -10409.369    10163.961 
   45100    984.65427   -10713.521            0   -10408.184    10202.295 
   45200    986.87069   -10706.554            0    -10400.53     10225.26 
   45300    1027.7512   -10715.048            0   -10396.347    10648.835 
   45400    1005.9482   -10713.733            0   -10401.794    10422.928 
   45500    1016.8581   -10720.658            0   -10405.336    10535.968 
   45600    983.84962   -10709.948            0   -10404.861    10193.958 
   45700    1009.6988    -10713.32            0   -10400.218    10461.789 
   45800    981.02966   -10700.617            0   -10396.405     10164.74 
   45900     1019.876   -10703.729            0   -10387.471    10567.238 
   46000    1039.3419    -10702.35            0   -10380.055     10768.93 
   46100    1010.4908   -10703.277            0   -10389.929    10469.996 
   46200    991.16413   -10709.217            0   -10401.862    10269.746 
   46300    987.38671   -10711.297            0   -10405.113    10230.607 
   46400    999.25063   -10714.887            0   -10405.024    10353.533 
   46500    993.58582   -10710.506            0     -10402.4    10294.838 
   46600    1013.1499   -10707.612            0    -10393.44    10497.547 
   46700    1025.8486   -10707.151            0   -10389.041    10629.122 
   46800    1001.0159    -10712.48            0    -10402.07    10371.823 
   46900    1011.2626    -10719.93            0   -10406.342    10477.992 
   47000    976.88539   -10708.109            0   -10405.182      10121.8 
   47100    1000.2768   -10710.146            0   -10399.965    10364.165 
   47200    1029.0379   -10711.323            0   -10392.224    10662.167 
   47300    1024.1816   -10706.515            0   -10388.921    10611.849 
   47400    973.66646   -10705.712            0   -10403.783    10088.447 
   47500    1012.2367   -10717.426            0   -10403.536    10488.085 
   47600    1001.0652   -10712.323            0   -10401.898    10372.333 
   47700    1000.3763   -10703.542            0    -10393.33    10365.195 
   47800    1015.7884   -10700.529            0   -10385.538    10524.885 
   47900     1014.828   -10704.877            0   -10390.184    10514.934 
   48000    993.12176   -10703.682            0   -10395.719    10290.029 
   48100    1009.6494   -10712.271            0   -10399.183    10461.277 
   48200    1013.6865   -10712.596            0   -10398.256    10503.107 
   48300     1021.849   -10712.605            0   -10395.735    10587.681 
   48400     1012.103   -10705.367            0   -10391.519    10486.699 
   48500    1011.1751   -10700.378            0   -10386.817    10477.086 
   48600    1002.9852   -10699.777            0   -10388.757    10392.227 
   48700    986.77266       -10705            0   -10399.007    10224.245 
   48800    969.13921   -10702.229            0   -10401.703    10041.539 
   48900      984.356   -10699.511            0   -10394.267    10199.205 
   49000    1017.9824    -10705.62            0   -10389.949    10547.618 
   49100    1020.8586   -10709.714            0   -10393.151    10577.419 
   49200    991.94986   -10706.146            0   -10398.548    10277.887 
   49300    988.82828   -10708.385            0   -10401.754    10245.543 
   49400    989.75239   -10707.872            0   -10400.955    10255.118 
   49500    986.06565   -10699.322            0   -10393.548    10216.919 
   49600     1003.633   -10699.478            0   -10388.256    10398.939 
   49700     1014.322   -10709.813            0   -10395.277    10509.691 
   49800    1008.5304   -10719.769            0   -10407.028    10449.683 
   49900    970.54538   -10708.255            0   -10407.294    10056.109 
   50000    1011.1206   -10711.942            0   -10398.399    10476.521 
Loop time of 9996.24 on 1 procs for 50000 steps with 2400 atoms

Performance: 0.432 ns/day, 55.535 hours/ns, 5.002 timesteps/s
97.6% CPU use with 1 MPI tasks x 1 OpenMP threads

MPI task timing breakdown:
Section |  min time  |  avg time  |  max time  |%varavg| %total
---------------------------------------------------------------
Pair    | 9964.4     | 9964.4     | 9964.4     |   0.0 | 99.68
Neigh   | 24.903     | 24.903     | 24.903     |   0.0 |  0.25
Comm    | 2.8511     | 2.8511     | 2.8511     |   0.0 |  0.03
Output  | 0.015499   | 0.015499   | 0.015499   |   0.0 |  0.00
Modify  | 3.1124     | 3.1124     | 3.1124     |   0.0 |  0.03
Other   |            | 0.9236     |            |       |  0.01

Nlocal:        2400.00 ave        2400 max        2400 min
Histogram: 1 0 0 0 0 0 0 0 0 0
Nghost:        4934.00 ave        4934 max        4934 min
Histogram: 1 0 0 0 0 0 0 0 0 0
Neighs:         0.00000 ave           0 max           0 min
Histogram: 1 0 0 0 0 0 0 0 0 0
FullNghs:      257002.0 ave      257002 max      257002 min
Histogram: 1 0 0 0 0 0 0 0 0 0

Total # of neighbors = 257002
Ave neighs/atom = 107.08417
Neighbor list builds = 1850
Dangerous builds = 0
Setting up Verlet run ...
  Unit style    : metal
  Current step  : 50000
  Time step     : 0.001
Per MPI rank memory allocation (min/avg/max) = 4.238 | 4.238 | 4.238 Mbytes
Step Temp E_pair TotEng f_3 v_tdiff 
   50000         1000   -10711.941   -10401.846            0            0 
   51000    1001.7762   -10712.496    -10401.85    41.517239  0.025984744 
   52000    988.32788   -10708.324   -10401.849     75.77242  0.046342888 
   53000    1011.6919   -10715.571   -10401.851      108.444  0.051509062 
   54000    1011.1556   -10715.411   -10401.857    143.08143  0.050748679 
   55000    1004.6426   -10713.382   -10401.847    176.19154  0.059374292 
   56000    987.08393   -10707.942   -10401.853     206.8453   0.05601661 
   57000    1007.8912   -10714.405   -10401.863    240.19962  0.047731185 
   58000    1011.9168   -10715.648   -10401.858    272.66838  0.051119059 
   59000    981.55778   -10706.207   -10401.831    306.46234  0.051590647 
   60000    984.85867   -10707.254   -10401.854    339.08158  0.051871164 
   61000    1007.9024   -10714.395   -10401.849    369.91966  0.054741432 
   62000    975.42439   -10704.296   -10401.822    401.43003  0.052293082 
   63000    995.66999   -10710.592   -10401.839    433.17864   0.05771068 
   64000    1018.4495   -10717.665   -10401.849    465.14601  0.054041789 
   65000    1007.4521   -10714.249   -10401.843    496.13908  0.059929609 
   66000    1000.6813   -10712.146    -10401.84    528.39253  0.058659735 
   67000    1010.9918   -10715.327   -10401.824    560.08485  0.062324882 
   68000    983.49065    -10706.83   -10401.854    593.02323  0.059405983 
   69000    994.34918   -10710.183    -10401.84    625.16469  0.055668208 
   70000     974.9367   -10704.165   -10401.842    656.92458  0.054217067 
   71000    999.11411   -10711.656   -10401.836    689.19898  0.052178028 
   72000    1010.4259   -10715.172   -10401.844    720.92038  0.053382407 
   73000    1017.6692    -10717.42   -10401.846    751.42014  0.055495333 
   74000    1019.8012   -10718.098   -10401.862      782.977  0.055503683 
   75000    1006.1704   -10713.836   -10401.827    814.07052  0.059658817 
   76000    985.55341   -10707.439   -10401.824     845.7919  0.057197494 
   77000    1007.5745   -10714.268   -10401.824    879.48886  0.059134052 
   78000    994.93959   -10710.342   -10401.816     911.7836  0.057590557 
   79000    1004.0218    -10713.17   -10401.828    942.23023  0.062571197 
   80000     980.7314   -10705.935   -10401.815    972.53028  0.061115016 
   81000    1002.4085   -10712.653   -10401.811    1003.5559  0.053138789 
   82000    1010.0791   -10715.055   -10401.834    1034.7349  0.058150349 
   83000    998.72916    -10711.52   -10401.819    1066.1518  0.054563119 
   84000    994.93353   -10710.356   -10401.832     1098.072  0.056920538 
   85000    992.29302   -10709.525    -10401.82    1127.6983   0.05885756 
   86000    983.27946   -10706.713   -10401.803    1157.6087  0.057833913 
   87000    998.49984   -10711.443   -10401.813    1187.5065  0.054792921 
   88000    994.89646    -10710.31   -10401.797      1218.25  0.055379617 
   89000    1020.1741   -10718.173   -10401.822    1250.3626  0.051459136 
   90000    1005.8338   -10713.739   -10401.835    1281.8848   0.05709465 
   91000    1011.1377    -10715.37   -10401.821    1314.8636   0.05240301 
   92000    986.01741   -10707.556   -10401.797    1347.0812  0.055797546 
   93000    999.28492   -10711.694   -10401.821    1378.3594  0.057558163 
   94000    992.08709   -10709.448   -10401.807    1410.3914  0.058974311 
   95000    1008.0937   -10714.408   -10401.803    1441.1013  0.061983841 
   96000    1016.6214   -10717.058   -10401.808    1472.1382   0.05639207 
   97000    1002.7958    -10712.77   -10401.807    1504.1882  0.062227904 
   98000    1015.6934   -10716.764   -10401.802    1534.9936  0.056387497 
   99000    993.08483   -10709.763   -10401.812    1565.9324   0.06088644 
  100000     993.7593    -10709.96     -10401.8    1597.0843  0.053962041 
  101000    1000.5358   -10712.071    -10401.81    1627.9681  0.061158183 
  102000    1006.7583   -10713.991     -10401.8    1660.4874   0.06164085 
  103000     978.9494   -10705.355   -10401.788    1691.4269  0.061783945 
  104000    991.54323   -10709.262   -10401.789    1721.2349  0.059504438 
  105000    1015.6431    -10716.74   -10401.794    1751.9049  0.058240289 
  106000    1003.0864   -10712.854   -10401.801    1783.6207  0.057014575 
  107000     1016.104   -10716.883   -10401.794    1815.5414  0.055911526 
  108000    993.70413    -10709.93   -10401.787    1847.3233  0.050634284 
  109000    1022.0335   -10718.711   -10401.783    1879.3616  0.052885967 
  110000    1010.6095   -10715.158   -10401.773    1910.5687  0.056615546 
  111000    976.01763   -10704.433   -10401.774    1941.4957   0.05826662 
  112000    986.78137   -10707.787   -10401.791    1972.9006  0.057384841 
  113000    991.00389   -10709.063   -10401.758    2005.8455  0.050906214 
  114000     983.4662   -10706.751   -10401.783    2037.6772  0.051651611 
  115000    1025.1597   -10719.667    -10401.77    2068.5994  0.054731555 
  116000    1010.5662   -10715.163   -10401.791    2099.4138  0.053351301 
  117000    1008.0391   -10714.369   -10401.781    2131.9675  0.052234008 
  118000    996.95176   -10710.926   -10401.776     2163.779  0.058681456 
  119000    1000.7378   -10712.079   -10401.755    2196.2363  0.057666123 
  120000    993.90117    -10709.97   -10401.766    2229.2031   0.05817117 
  121000    1006.8303   -10713.978   -10401.764    2260.3223  0.065565908 
  122000    1002.8888   -10712.751    -10401.76    2290.9901  0.059047426 
  123000    1001.1872   -10712.229   -10401.766    2321.8242  0.051156777 
  124000    964.76192   -10700.932   -10401.764    2353.0289  0.057945785 
  125000    992.91154    -10709.62   -10401.723    2387.0324  0.051145391 
  126000    997.16273   -10710.965    -10401.75    2419.5756  0.057977253 
  127000    1011.1798   -10715.302    -10401.74     2451.207  0.054651391 
  128000    982.21616   -10706.315   -10401.735    2482.5699  0.058175356 
  129000    1003.8634   -10713.012   -10401.719    2514.3003  0.055361936 
  130000    991.64847   -10709.244   -10401.739    2546.3429  0.059868946 
  131000    1011.6516   -10715.447   -10401.739     2579.102  0.052299355 
  132000    1008.7569   -10714.545   -10401.734    2610.2678  0.052227659 
  133000    987.26833   -10707.876   -10401.729    2641.5931  0.054852163 
  134000    990.23083   -10708.799   -10401.733    2670.5067  0.057037908 
  135000    1003.7657   -10712.989   -10401.726    2701.6466  0.055748663 
  136000    985.70399   -10707.385   -10401.723    2731.2529  0.060863163 
  137000    1004.5943   -10713.246   -10401.726    2762.9932  0.051797964 
  138000    994.48736   -10710.111   -10401.726    2795.4768  0.050764252 
  139000    987.06564   -10707.787   -10401.703    2826.7964  0.055527177 
  140000    985.75398   -10707.398   -10401.721    2858.6981  0.054320416 
  141000    1001.8472   -10712.386   -10401.718    2890.5086  0.061206675 
  142000    1000.3913   -10711.965   -10401.748    2920.9055  0.064112322 
  143000    997.86076   -10711.148   -10401.717    2952.1769   0.05767808 
  144000    987.06252   -10707.791   -10401.708    2982.6319  0.054478823 
  145000    1003.3188   -10712.848   -10401.723    3014.8234  0.054492722 
  146000    1020.5609   -10718.182   -10401.711    3047.3386  0.053167497 
  147000    1000.4321   -10711.939    -10401.71    3078.5334  0.056143433 
  148000    1001.9185   -10712.389   -10401.699    3109.6615  0.057700448 
  149000    1008.4023    -10714.41    -10401.71    3141.1475  0.051095925 
  150000    1017.8723    -10717.36   -10401.723    3172.4352   0.05914823 
  151000    985.48144   -10707.312    -10401.72    3203.1873  0.055743909 
  152000     1008.152   -10714.346   -10401.723    3234.8452  0.052240717 
  153000    1013.0337   -10715.871   -10401.734    3267.2933  0.061361124 
  154000    990.58838   -10708.895   -10401.718    3297.6986  0.058832097 
  155000     1000.418   -10711.963   -10401.738    3329.7123  0.061332778 
  156000    1014.2572   -10716.221   -10401.705    3360.1329  0.059280848 
  157000    1010.7277    -10715.14   -10401.718    3393.3653  0.057587612 
  158000    995.92938    -10710.56   -10401.727    3423.4871  0.057329553 
  159000    1016.7867   -10717.006   -10401.705    3455.8186  0.053304997 
  160000    994.84606     -10710.2   -10401.703    3487.0254  0.061383632 
  161000    987.85257   -10708.029   -10401.701    3520.5113  0.055088595 
  162000    992.05566   -10709.354   -10401.722    3550.6193  0.056453342 
  163000    983.59062   -10706.712   -10401.705    3581.0274  0.056808125 
  164000    997.07035   -10710.907   -10401.721    3612.9766  0.052603469 
  165000    1007.0148   -10713.983   -10401.713    3644.0271  0.055004552 
  166000    976.96295   -10704.647   -10401.696    3676.2641  0.056069924 
  167000    1003.3757   -10712.845   -10401.703     3708.242  0.053454842 
  168000    1014.3395   -10716.238   -10401.697    3739.0161  0.053223802 
  169000    990.45103   -10708.838   -10401.704    3770.3563  0.055361433 
  170000    1019.1805   -10717.746   -10401.703    3803.0432  0.059823868 
  171000    986.39436    -10707.58   -10401.704    3832.5425  0.059936503 
  172000    1027.9498   -10720.467   -10401.705    3862.2289  0.057428339 
  173000    986.19613   -10707.493   -10401.679     3895.635  0.061035157 
  174000     991.6586   -10709.216   -10401.707    3927.4287  0.057275703 
  175000    991.57065   -10709.174   -10401.693    3960.7778  0.057397504 
  176000    999.92458   -10711.759   -10401.687    3992.4286  0.054687691 
  177000    1000.9636   -10712.098   -10401.704    4025.1523  0.055427402 
  178000    1005.5532   -10713.516   -10401.699    4057.0786  0.056410525 
  179000    1023.8497   -10719.174   -10401.683    4088.4737  0.059178414 
  180000    1015.1671   -10716.489   -10401.691    4119.7198  0.056494197 
  181000    1011.8325   -10715.456   -10401.692    4152.7768  0.053157188 
  182000    989.70741   -10708.576   -10401.673    4183.9056  0.053320357 
  183000    990.09064   -10708.694   -10401.672    4215.0534  0.052878821 
  184000    1031.3936   -10721.503   -10401.673    4246.6601    0.0590208 
  185000    997.96801   -10711.146   -10401.681    4278.0495  0.056468186 
  186000    1007.4437    -10714.08   -10401.677    4308.6092  0.053871578 
  187000    991.70416   -10709.212   -10401.689    4340.3842  0.050229367 
  188000    1006.3928   -10713.772   -10401.695    4372.0741  0.051327848 
  189000    992.29993   -10709.379   -10401.672    4403.9287  0.049729824 
  190000    992.04283   -10709.319   -10401.692    4435.6306  0.057824123 
  191000    1010.4949   -10715.023   -10401.674    4466.3676  0.058674268 
  192000    992.85956   -10709.547   -10401.666    4497.8415  0.062192403 
  193000    1012.9666   -10715.791   -10401.675    4528.6691  0.059985829 
  194000     1008.829   -10714.512   -10401.679     4559.719  0.054224854 
  195000    1011.6835   -10715.393   -10401.674    4592.6339  0.057386406 
  196000    1014.2039   -10716.186   -10401.686    4623.5995  0.054755096 
  197000    1001.2547   -10712.173   -10401.689    4656.2122  0.053005747 
  198000    1018.1257   -10717.394   -10401.678    4685.4165  0.056533174 
  199000    1011.3654   -10715.299   -10401.679    4716.6367  0.051951249 
  200000    983.94778   -10706.802   -10401.684    4748.1039  0.058161442 
  201000    1020.4869   -10718.149   -10401.701    4782.2849  0.053535435 
  202000    1005.5093   -10713.483    -10401.68    4814.4277  0.054410674 
  203000    1001.3485    -10712.21   -10401.697    4845.0775  0.054471178 
  204000    1003.9866    -10713.01   -10401.678    4876.5454  0.058586601 
  205000    1002.3581   -10712.501   -10401.675    4907.3388  0.055181467 
  206000    995.06475   -10710.223   -10401.658    4939.1176  0.055997559 
  207000    1006.9601   -10713.918   -10401.665    4969.5466  0.054761297 
  208000    1009.6532    -10714.76   -10401.671    5001.9693  0.053990518 
  209000    1004.1556   -10713.047   -10401.663    5030.8517   0.05398388 
  210000    1002.7115   -10712.597   -10401.661    5064.1865  0.057702034 
  211000    980.59572   -10705.728    -10401.65    5095.8791  0.055756884 
  212000    1000.4316   -10711.868   -10401.639    5127.1569  0.049015983 
  213000    992.04213   -10709.262   -10401.634    5158.5304  0.059781217 
  214000    982.75671   -10706.389   -10401.641    5189.6466  0.054957987 
  215000     1005.603    -10713.47   -10401.637    5221.6696  0.054084972 
  216000    1017.5878     -10717.2   -10401.651    5254.2549  0.052777559 
  217000    997.47533   -10710.946   -10401.634    5287.5319  0.056103072 
  218000    978.61189   -10705.096   -10401.633    5320.2676  0.059617701 
  219000    985.90691   -10707.367   -10401.642    5351.8286  0.060196682 
  220000    980.92025   -10705.809    -10401.63    5383.9889  0.054507102 
  221000    1004.4458    -10713.12   -10401.646    5414.2597  0.057273191 
  222000    1015.4552    -10716.53   -10401.643    5445.5704  0.059179951 
  223000    1005.5056   -10713.452    -10401.65    5476.5048  0.055648566 
  224000    972.73116   -10703.281   -10401.642    5507.2992  0.058928987 
  225000    1003.2046   -10712.746   -10401.657     5539.143  0.057180549 
  226000     990.3687   -10708.744   -10401.636    5571.4454  0.057879458 
  227000    994.05456   -10709.894   -10401.642    5603.9466  0.053786263 
  228000    1008.1165   -10714.271   -10401.659    5633.8851  0.055830655 
  229000    1005.9005   -10713.568   -10401.644    5665.0286  0.050918664 
  230000    995.66838     -10710.4   -10401.649    5696.9537   0.05264602 
  231000    1000.1732   -10711.803   -10401.654    5728.5647  0.053690164 
  232000    1009.9304   -10714.822   -10401.648    5760.4979  0.056847159 
  233000    995.35682   -10710.281   -10401.626    5792.7806   0.05716267 
  234000    1039.7356   -10724.063   -10401.647    5824.7024  0.059578115 
  235000    1022.8475    -10718.83    -10401.65    5858.5622   0.05614743 
  236000    988.13905   -10708.068   -10401.651    5887.8141  0.058749747 
  237000    1004.8409   -10713.238   -10401.642    5919.9948  0.053255883 
  238000    983.92589   -10706.737   -10401.627    5952.0658  0.063138512 
  239000    1020.3649   -10718.067   -10401.657    5985.2515  0.058045464 
  240000    1006.3256   -10713.698   -10401.642    6016.5962   0.05712335 
  241000    992.28731   -10709.332   -10401.629    6045.9977  0.064344874 
  242000    963.83871   -10700.511   -10401.629    6075.8033  0.062810246 
  243000    993.24431   -10709.633   -10401.633    6107.6373  0.060651867 
  244000     1007.317   -10714.005   -10401.641    6139.6779  0.056239849 
  245000    971.53973   -10702.893   -10401.623     6170.862  0.056014964 
  246000    1004.2637   -10713.049   -10401.632    6202.7227  0.054639727 
  247000    1000.7355   -10711.957   -10401.634    6233.5952  0.051509903 
  248000    1015.2344   -10716.454   -10401.635    6265.0474  0.054906061 
  249000    1008.7619   -10714.466   -10401.654    6297.9388  0.061134285 
  250000    1005.8829   -10713.561   -10401.641    6329.0509  0.057272257 
Loop time of 39233.5 on 1 procs for 200000 steps with 2400 atoms

Performance: 0.440 ns/day, 54.491 hours/ns, 5.098 timesteps/s
98.3% CPU use with 1 MPI tasks x 1 OpenMP threads

MPI task timing breakdown:
Section |  min time  |  avg time  |  max time  |%varavg| %total
---------------------------------------------------------------
Pair    | 39100      | 39100      | 39100      |   0.0 | 99.66
Neigh   | 108.29     | 108.29     | 108.29     |   0.0 |  0.28
Comm    | 11.38      | 11.38      | 11.38      |   0.0 |  0.03
Output  | 0.0059641  | 0.0059641  | 0.0059641  |   0.0 |  0.00
Modify  | 9.6476     | 9.6476     | 9.6476     |   0.0 |  0.02
Other   |            | 3.793      |            |       |  0.01

Nlocal:        2400.00 ave        2400 max        2400 min
Histogram: 1 0 0 0 0 0 0 0 0 0
Nghost:        5000.00 ave        5000 max        5000 min
Histogram: 1 0 0 0 0 0 0 0 0 0
Neighs:         0.00000 ave           0 max           0 min
Histogram: 1 0 0 0 0 0 0 0 0 0
FullNghs:      256414.0 ave      256414 max      256414 min
Histogram: 1 0 0 0 0 0 0 0 0 0

Total # of neighbors = 256414
Ave neighs/atom = 106.83917
Neighbor list builds = 7899
Dangerous builds = 0
Setting up Verlet run ...
  Unit style    : metal
  Current step  : 250000
  Time step     : 0.001
Per MPI rank memory allocation (min/avg/max) = 4.489 | 4.489 | 4.489 Mbytes
Step Temp E_pair TotEng f_3 v_tdiff f_ave 
  250000    1005.8829   -10713.561   -10401.641            0  0.057272257  0.057272257 
  251000     1000.546   -10711.907   -10401.643    30.572369   0.05595275  0.056612504 
  252000    1011.3483   -10715.245   -10401.631    62.791548  0.053472204  0.055565737 
  253000    1009.5588   -10714.711   -10401.652    93.509606  0.054051789   0.05518725 
  254000    997.64626   -10711.007   -10401.642    124.61389  0.059888579  0.056127516 
  255000    1016.1379    -10716.74   -10401.641    156.61283  0.057800536  0.056406353 
  256000    1006.3718   -10713.726   -10401.655    189.35218  0.053089553  0.055932524 
  257000    1015.3116   -10716.479   -10401.636    220.85429   0.05337285  0.055612565 
  258000    996.35532   -10710.595    -10401.63    252.76004  0.050614203  0.055057191 
  259000    984.83659    -10707.03   -10401.637    284.65906  0.051910952  0.054742567 
  260000     1012.027   -10715.454   -10401.629    318.50378  0.057411213  0.054985171 
  261000    995.76992   -10710.421   -10401.638    349.50274  0.058246288  0.055256931 
  262000    989.65731   -10708.501   -10401.613    381.33612  0.062334015  0.055801322 
  263000    1000.0219   -10711.712    -10401.61    412.84697  0.054729433  0.055724759 
  264000    997.15258    -10710.82   -10401.608    445.19195   0.06054502  0.056046109 
  265000    1008.9455   -10714.477   -10401.608     476.4348  0.058650005  0.056208853 
  266000    997.14778   -10710.826   -10401.616    506.74643  0.062046398  0.056552238 
  267000    1038.3209    -10723.59   -10401.612     537.4922  0.051758939  0.056285943 
  268000    1001.3274   -10712.106     -10401.6    568.38195  0.061362477  0.056553129 
  269000    1004.5841   -10713.121   -10401.604    598.15386  0.059010049  0.056675975 
  270000    998.44488   -10711.202   -10401.589    630.11958  0.052770756  0.056490013 
  271000    994.02378   -10709.806   -10401.564     660.8061  0.055985173  0.056467065 
  272000    999.01287   -10711.371   -10401.582    692.76196  0.059160778  0.056584183 
  273000    996.45413   -10710.567   -10401.572     723.9739  0.058933914  0.056682089 
  274000    1016.8253   -10716.897   -10401.585    755.06182  0.058826734  0.056767875 
  275000    998.15491   -10711.086   -10401.563    786.89022  0.049891659  0.056503405 
  276000    996.60748   -10710.621   -10401.578    816.47954  0.054226268  0.056419066 
  277000    973.52858   -10703.448   -10401.562    846.83139  0.053594266  0.056318181 
  278000    987.69397   -10707.854   -10401.575    877.67607  0.055552181  0.056291767 
  279000    980.18665   -10705.513   -10401.562    907.88423  0.057634501  0.056336525 
  280000    985.57895   -10707.185   -10401.561    939.03468  0.054256848  0.056269438 
  281000    989.40874   -10708.379   -10401.568     970.6219  0.061202913  0.056423609 
  282000    1021.6547   -10718.381   -10401.571    1001.0258  0.058098315  0.056474358 
  283000    1017.9075   -10717.202   -10401.554    1031.8512  0.053387432  0.056383566 
  284000    1024.7464   -10719.334   -10401.565    1062.6747  0.055132237  0.056347814 
  285000    990.31164   -10708.639   -10401.548    1097.6284  0.058962505  0.056420444 
  286000    986.41018   -10707.417   -10401.536    1129.7134  0.059604597  0.056506502 
  287000    998.20732   -10711.073   -10401.534    1159.3491  0.052794103  0.056408808 
  288000    989.17096    -10708.28   -10401.543    1190.9327  0.051506612   0.05628311 
  289000    997.34661   -10710.806   -10401.533    1223.3776   0.05478566  0.056245674 
  290000    1001.2176   -10712.017   -10401.544    1255.2816  0.058375979  0.056297633 
  291000     1010.922   -10715.037   -10401.555    1284.5009  0.056527342  0.056303102 
  292000    1015.5374   -10716.436   -10401.522     1314.921  0.055239774  0.056278373 
  293000    996.78211   -10710.635   -10401.538    1346.7769  0.052482124  0.056192095 
  294000    991.51434   -10708.991   -10401.527    1378.1589  0.057190548  0.056214283 
  295000    985.92242   -10707.244   -10401.514    1407.4556  0.060229686  0.056301574 
  296000    1014.4093   -10716.082   -10401.519    1439.1958  0.053264757  0.056236961 
  297000    996.44541   -10710.512   -10401.519    1470.5367  0.061662412  0.056349991 
  298000    1003.9689   -10712.856   -10401.531    1501.1164  0.058522289  0.056394324 
  299000    988.94976   -10708.198    -10401.53    1532.7023   0.05868604  0.056440158 
  300000    990.76168   -10708.744   -10401.514      1563.43  0.054572967  0.056403547 
  301000    1002.4581   -10712.366   -10401.509    1595.3724  0.057226314  0.056419369 
  302000    1005.9973   -10713.479   -10401.524    1627.7223   0.05489497  0.056390607 
  303000    1011.6033   -10715.202   -10401.509    1659.4326  0.057307623  0.056407589 
  304000    1024.5089   -10719.219   -10401.524    1689.9037  0.053796291  0.056360111 
  305000    1005.9725   -10713.466   -10401.519    1721.0275   0.05461823  0.056329006 
  306000    967.88561    -10701.64   -10401.503    1752.2966  0.056620458  0.056334119 
  307000    997.27766   -10710.767   -10401.516    1783.6177   0.05667336  0.056339968 
  308000    996.67704   -10710.586   -10401.521    1814.8898  0.053783797  0.056296643 
  309000    1016.7389   -10716.789   -10401.503    1845.2126  0.054943313  0.056274087 
  310000     973.1677   -10703.277   -10401.503    1877.5928  0.054721338  0.056248632 
  311000    995.69253   -10710.261   -10401.501    1908.8532  0.053949518   0.05621155 
  312000    998.46312   -10711.136   -10401.517    1939.6443  0.050975665  0.056128441 
  313000    1012.4239   -10715.446   -10401.499    1970.1267  0.053373161  0.056085389 
  314000    1027.6792   -10720.169   -10401.491     2003.134  0.054247198  0.056057109 
  315000    1004.1973   -10712.889   -10401.492    2032.3872  0.053400138  0.056016852 
  316000     1006.369   -10713.545   -10401.475     2063.595  0.056444638  0.056023237 
  317000    997.92081   -10710.946   -10401.496    2093.9456  0.057879465  0.056050535 
  318000    1005.8446   -10713.394   -10401.486    2124.7312    0.0525754   0.05600017 
  319000    977.21776   -10704.515   -10401.484    2155.4479   0.05588654  0.055998547 
  320000    998.57407   -10711.113    -10401.46    2187.0753  0.057771061  0.056023512 
  321000    1009.9516    -10714.67   -10401.489    2218.6029  0.060880281  0.056090967 
  322000    997.11256   -10710.684   -10401.484    2249.4375  0.052307628  0.056039141 
  323000    979.74264   -10705.292   -10401.479    2281.7848  0.051432161  0.055976884 
  324000    1020.7846   -10718.028   -10401.488    2313.5126  0.046983195  0.055856968 
  325000    993.49244   -10709.562   -10401.484    2348.0527  0.054392194  0.055837695 
  326000    996.54018   -10710.531   -10401.509     2378.955  0.054793867  0.055824139 
  327000    986.60092   -10707.421   -10401.481      2411.44  0.058063213  0.055852845 
  328000    999.73922   -10711.512   -10401.497    2442.4887  0.055554928  0.055849074 
  329000    992.78951   -10709.341   -10401.482    2473.5675  0.053101898  0.055814734 
  330000    978.92814   -10705.049   -10401.488    2505.3314   0.06057045  0.055873447 
  331000    1015.3816   -10716.349   -10401.484    2537.2427  0.054983274  0.055862591 
  332000    1006.7826   -10713.687   -10401.488    2570.6905  0.056616372  0.055871673 
  333000    1023.5947   -10718.895   -10401.483    2601.0739  0.055448616  0.055866636 
  334000     1015.014   -10716.244   -10401.493    2630.1539  0.060672561  0.055923176 
  335000    1001.6611   -10712.103   -10401.492     2661.062  0.052705711  0.055885764 
  336000    995.84199   -10710.293   -10401.487    2691.1936  0.058050453  0.055910646 
  337000    1009.0235   -10714.397   -10401.504    2722.8806  0.057296102  0.055926389 
  338000    987.87819   -10707.811   -10401.474    2754.4352  0.058102953  0.055950845 
  339000    999.77098   -10711.501   -10401.477    2786.7054  0.055357062  0.055944248 
  340000    988.08282   -10707.902   -10401.503    2818.0953  0.057022492  0.055956096 
  341000    1014.3201   -10716.032   -10401.497    2849.4393  0.051296133  0.055905445 
  342000    1013.9715   -10715.925   -10401.497    2881.8039  0.056433452  0.055911122 
  343000    1000.6684   -10711.791   -10401.489     2912.554  0.058150577  0.055934946 
  344000    1000.0758   -10711.601   -10401.482    2945.5118  0.053367997  0.055907926 
  345000    1006.4493    -10713.58   -10401.485    2976.4272  0.053850057  0.055886489 
  346000    1016.2083   -10716.615   -10401.494    3007.7362  0.053428057  0.055861145 
  347000    996.12471   -10710.392   -10401.498    3037.6323    0.0544799   0.05584705 
  348000    1033.6783   -10722.022   -10401.484    3068.4666   0.05774858  0.055866258 
  349000    1011.7466   -10715.241   -10401.504     3098.937  0.060267908  0.055910274 
  350000    1003.3415   -10712.614   -10401.483    3130.2074  0.050373729  0.055855457 
  351000    983.61546   -10706.494    -10401.48    3161.8833   0.05708752  0.055867536 
  352000     989.1884   -10708.237   -10401.495    3192.0284  0.059595084  0.055903726 
  353000    995.45645   -10710.178   -10401.492    3221.5676   0.05837011  0.055927441 
  354000    1010.1193   -10714.711   -10401.478    3251.8491  0.055536664  0.055923719 
  355000    1012.7353   -10715.524    -10401.48    3283.0731   0.05386508  0.055904298 
  356000    1005.4412   -10713.265   -10401.482    3314.1018  0.054625393  0.055892346 
  357000    1004.9689   -10713.117   -10401.481    3344.9125  0.057118018  0.055903695 
  358000    998.33426   -10711.053   -10401.474    3378.3659  0.055864075  0.055903331 
  359000    999.02224   -10711.256   -10401.464    3410.1657  0.056179341   0.05590584 
  360000    998.16344   -10710.994   -10401.469    3439.9808  0.056868553  0.055914513 
  361000    1012.7437   -10715.513   -10401.466    3471.0642  0.058064029  0.055933706 
  362000     997.1414   -10710.681   -10401.472    3501.6335  0.058041839  0.055952362 
  363000    1004.4553   -10712.935   -10401.458    3533.2892    0.0613407  0.055999628 
  364000    1029.3979   -10720.668   -10401.457    3565.9963  0.051206182  0.055957946 
  365000    1009.7593   -10714.589   -10401.467    3596.3248  0.056136319  0.055959483 
  366000    988.79698   -10708.082   -10401.461    3628.0579  0.060025085  0.055994232 
  367000    1004.8977   -10713.076   -10401.462    3658.9183  0.055194955  0.055987459 
  368000    996.94844   -10710.603   -10401.454    3691.9579  0.056367626  0.055990653 
  369000     1012.332   -10715.387   -10401.468    3721.8566  0.058713595  0.056013344 
  370000    990.22452   -10708.517   -10401.453    3752.6637  0.056542101  0.056017714 
  371000    985.66729   -10707.104   -10401.453     3784.932  0.059376331  0.056045244 
  372000    993.52705   -10709.542   -10401.454    3815.5165  0.055445044  0.056040364 
  373000    993.71219    -10709.58   -10401.435    3846.9539  0.054075794  0.056024521 
  374000    1011.1219   -10714.976   -10401.432    3879.4145  0.055836431  0.056023016 
  375000    992.51084   -10709.204   -10401.431    3909.0474   0.05593227  0.056022296 
  376000    987.82657   -10707.732   -10401.412    3941.4382  0.049943284   0.05597443 
  377000    1015.7925   -10716.406   -10401.414    3973.0135   0.05689067  0.055981588 
  378000    995.12088   -10709.992    -10401.41    4002.8004  0.054201551  0.055967789 
  379000    1021.3107   -10718.133   -10401.429    4034.6759  0.054126413  0.055953625 
  380000    1012.5563   -10715.405   -10401.417    4065.7976  0.061048931   0.05599252 
  381000    975.80183   -10703.991     -10401.4    4096.7257  0.054835534  0.055983755 
  382000    994.10646   -10709.666   -10401.398    4129.2376  0.056425131  0.055987074 
  383000    1002.4078   -10712.262    -10401.42    4159.0236  0.054347132  0.055974835 
  384000    1005.3504   -10713.181   -10401.426    4191.0014  0.057203892   0.05598394 
  385000    1002.5241   -10712.297   -10401.419    4221.8857   0.05931894  0.056008462 
  386000    993.53651   -10709.514   -10401.423    4253.2827  0.055941429  0.056007972 
  387000    1008.6474   -10714.182   -10401.405    4286.3811  0.053671673  0.055991043 
  388000    995.97463   -10710.274   -10401.428    4319.9939  0.053749721  0.055974918 
  389000    1010.1952   -10714.688   -10401.432    4352.7425  0.055661727  0.055972681 
  390000    1003.5132   -10712.603   -10401.418    4384.7096  0.059575263  0.055998231 
  391000     1000.415   -10711.649   -10401.426    4416.3256  0.058829035  0.056018166 
  392000    977.72295   -10704.612   -10401.425    4446.7179  0.062796132  0.056065565 
  393000    1002.5029   -10712.294   -10401.423    4478.5252  0.052760415  0.056042612 
  394000     1004.584   -10712.942   -10401.426    4509.9325  0.056244564  0.056044005 
  395000    1014.6524   -10716.065   -10401.427    4540.9499  0.055108801    0.0560376 
  396000    1031.8435   -10721.409    -10401.44    4571.3864  0.054714644    0.0560286 
  397000    1001.2549   -10711.904    -10401.42     4602.123  0.056362629  0.056030857 
  398000    993.24281   -10709.395   -10401.395    4634.2652  0.060463758  0.056060608 
  399000    990.36996    -10708.51   -10401.401    4665.2011  0.060826502   0.05609238 
  400000    1029.3157   -10720.607   -10401.422     4695.833  0.056117625  0.056092548 
  401000    1019.9759   -10717.698   -10401.409    4727.7624  0.057068155  0.056098966 
  402000    1007.6238   -10713.864   -10401.405    4758.8201  0.055026511  0.056091957 
  403000    1000.4022   -10711.611   -10401.392    4790.1813   0.05059904  0.056056288 
  404000    1004.2418   -10712.821   -10401.411    4821.5819  0.052118402  0.056030883 
  405000    1004.9824   -10713.042   -10401.402    4853.2466  0.060420621  0.056059022 
  406000    1016.3083   -10716.546   -10401.394     4885.171  0.056154767  0.056059632 
  407000    986.19504   -10707.203   -10401.389    4916.3533  0.051967842  0.056033734 
  408000    978.61517   -10704.848   -10401.384    4946.3046  0.054921972  0.056026742 
  409000    964.47664   -10700.454   -10401.375    4978.4211   0.05738166   0.05603521 
  410000     995.4549   -10710.088   -10401.402    5010.0003  0.054543959  0.056025948 
  411000    1013.2621    -10715.61   -10401.403    5041.1903  0.057503821  0.056035071 
  412000    1021.1651    -10718.05   -10401.392    5073.1335  0.060360148  0.056061605 
  413000     1008.494   -10714.121   -10401.392    5103.9658  0.057710228  0.056071657 
  414000    996.17133   -10710.312   -10401.404    5135.9658  0.059399047  0.056091823 
  415000    993.95154   -10709.612   -10401.393     5166.439  0.062725682  0.056131786 
  416000    984.10175   -10706.569   -10401.404    5196.1785  0.059599014  0.056152548 
  417000    1003.9495   -10712.716   -10401.396    5226.9415  0.055072731  0.056146121 
  418000    985.29811   -10706.926    -10401.39    5258.1053  0.059108703  0.056163651 
  419000    1005.7407   -10713.268   -10401.392      5290.72   0.05397776  0.056150793 
  420000    990.84866   -10708.661   -10401.404    5322.5989  0.049922073  0.056114367 
  421000    996.46224   -10710.382   -10401.384    5354.5625  0.060439887  0.056139516 
  422000    1000.1856   -10711.542   -10401.389    5384.3543   0.05993489  0.056161454 
  423000    993.85587   -10709.567   -10401.378    5414.5908  0.060244474   0.05618492 
  424000    1003.3223   -10712.518   -10401.392    5445.6557  0.059205625  0.056202181 
  425000    988.55706   -10707.917    -10401.37    5477.4814  0.056958027  0.056206476 
  426000      1002.09   -10712.115   -10401.372    5508.7259  0.060141647  0.056228708 
  427000    993.77137   -10709.507   -10401.343    5538.8065  0.053799476  0.056215061 
  428000    991.65328   -10708.871   -10401.364     5571.865  0.048980893  0.056174647 
  429000    1000.2522   -10711.524   -10401.351    5602.9438  0.050885682  0.056145263 
  430000    987.90067     -10707.7   -10401.357    5634.2132  0.058220383  0.056156728 
  431000     999.7799   -10711.381   -10401.354    5666.4349  0.058543801  0.056169844 
  432000    1026.8735   -10719.786   -10401.358    5698.9426  0.051463175  0.056144125 
  433000    1013.8483   -10715.753   -10401.364    5729.5435  0.063373753  0.056183416 
  434000    1012.4426   -10715.298   -10401.344    5761.1812  0.051714953  0.056159262 
  435000    992.55925   -10709.148   -10401.361    5791.6632  0.054608991  0.056150927 
  436000    976.84639   -10704.236   -10401.321     5821.905  0.058083745  0.056161263 
  437000    986.84263   -10707.352   -10401.337    5851.9678  0.054775173   0.05615389 
  438000    1000.6285   -10711.638   -10401.348    5884.3084  0.056278883  0.056154552 
  439000    1001.6089   -10711.944    -10401.35    5916.1889  0.055153427  0.056149283 
  440000    1001.2862   -10711.837   -10401.343    5948.9044  0.059627069  0.056167491 
  441000    1016.8287   -10716.648   -10401.335    5979.0653  0.059388707  0.056184268 
  442000    990.34857   -10708.436   -10401.333    6010.1899  0.055065703  0.056178473 
  443000    985.37767   -10706.888   -10401.327    6039.8278   0.05284383  0.056161284 
  444000    995.92455   -10710.157   -10401.326    6070.4256  0.054494866  0.056152738 
  445000    991.34581    -10708.75   -10401.339    6101.6426  0.058943916  0.056166979 
  446000    1002.0136   -10712.047   -10401.327    6134.2122  0.054644664  0.056159251 
  447000    1010.3635    -10714.64   -10401.331    6165.8308  0.053510504  0.056145874 
  448000    987.27368    -10707.47   -10401.321    6199.0872  0.060125364  0.056165871 
  449000    1022.4624   -10718.395   -10401.334    6232.0943  0.058960499  0.056179844 
  450000    984.99125   -10706.756   -10401.315     6262.846  0.058089346  0.056189344 
Loop time of 39189.3 on 1 procs for 200000 steps with 2400 atoms

Performance: 0.441 ns/day, 54.430 hours/ns, 5.103 timesteps/s
98.3% CPU use with 1 MPI tasks x 1 OpenMP threads

MPI task timing breakdown:
Section |  min time  |  avg time  |  max time  |%varavg| %total
---------------------------------------------------------------
Pair    | 39056      | 39056      | 39056      |   0.0 | 99.66
Neigh   | 108.46     | 108.46     | 108.46     |   0.0 |  0.28
Comm    | 11.218     | 11.218     | 11.218     |   0.0 |  0.03
Output  | 0.0052366  | 0.0052366  | 0.0052366  |   0.0 |  0.00
Modify  | 9.8254     | 9.8254     | 9.8254     |   0.0 |  0.03
Other   |            | 3.79       |            |       |  0.01

Nlocal:        2400.00 ave        2400 max        2400 min
Histogram: 1 0 0 0 0 0 0 0 0 0
Nghost:        4950.00 ave        4950 max        4950 min
Histogram: 1 0 0 0 0 0 0 0 0 0
Neighs:         0.00000 ave           0 max           0 min
Histogram: 1 0 0 0 0 0 0 0 0 0
FullNghs:      256622.0 ave      256622 max      256622 min
Histogram: 1 0 0 0 0 0 0 0 0 0

Total # of neighbors = 256622
Ave neighs/atom = 106.92583
Neighbor list builds = 7897
Dangerous builds = 0
Running average thermal conductivity: 8.44
System init for write_data ...
Total wall time: 24:35:33
