FLiNa to FNa ratio: 1

100 atoms 
0  bonds
0  angles0  dihedrals
0  impropers

3 atom type
0  bond types
0  angle types
0  dihedral types
0  improper types

0.0 11.166290801884152 xlo xhi
0.0 11.166290801884152 ylo yhi
0.0 11.166290801884152 zlo zhi

Masses

1 18.998
2 6.941
2 22.99

Atoms

1 1 36.51 -237.579 101.49 
2 1 -106.373 121.638 163.15 
3 1 -24.512 105.158 -28.319
4 1 8.109 159.128 113.659
5 1 -110.519 231.924 -24.159
6 1 -11.927 277.012 76.529
7 1 -194.824 251.226 -82.223
8 1 -11.738 172.112 59.517
9 1 85.36 -41.053 8.595
10 1 124.493 58.196 -38.378
11 1 65.45 -53.654 53.425
12 1 153.979 325.091 39.088
13 1 -92.233 67.638 -149.048
14 1 -10.635 6.483 111.701
15 1 81.107 4.276 -46.941
16 1 194.01 71.826 85.201
17 1 5.674 210.375 77.84 
18 1 184.666 -55.066 -11.34 
19 1 -60.21 -149.769 -23.256
20 1 103.591 -16.906 4.769
21 1 21.654 32.164 82.905
22 1 295.43 -85.22 -136.398
23 1 164.665 155.532 287.782
24 1 -15.406 278.097 19.853
25 1 303.246 51.426 16.181
26 1 128.468 152.748 171.682
27 1 -44.603 -85.115 -1.281
28 1 131.853 -7.063 4.785
29 1 63.752 86.796 151.289
30 1 77.629 121.462 143.329
31 1 -29.31 7.61 173.537
32 1 -24.631 -45 -59.97 
33 1 74.966 5.203 -138.662
34 1 -81.545 -2.658 71.035
35 1 128.866 -33.79 275.255
36 1 165.82 -30.307 -164.921
37 1 102.453 -62.288 -7.887
38 1 191.512 -22.284 62.891
39 1 85.429 285.922 170.665
40 1 -100.567 -68.222 9.807
41 1 50.473 36.715 -56.136
42 1 221.138 -53.595 36.767
43 1 -23.461 -23.923 35.825
44 1 87.451 -77.216 76.054
45 1 128.134 210.897 -7.889
46 1 242.735 126.976 28.06 
47 1 30.458 208.239 132.123
48 1 22.485 -105.003 -239.115
49 1 -1.886 119.118 70.704
50 1 43.136 112.016 252.938
51 2 104.963 85.316 0.881
52 2 24.14 -48.192 -10.104
53 2 309.556 116.375 23.848
54 2 -179.701 248.617 -191.639
55 2 248.767 135.57 -117.245
56 2 -73.943 -124.241 111.384
57 2 26.162 16.267 -81.549
58 2 -41.846 92.16 -96.677
59 2 -7.611 236.976 114.466
60 2 4.514 160.197 -182.353
61 2 266.566 -87.342 133.206
62 2 -34.434 0.817 -123.248
63 2 -10.415 82.057 33.971
64 2 84.4 323.014 234.365
65 2 -105.387 124.784 141.826
66 2 -70.533 -20.085 -46.77 
67 2 -7.66 188.638 -181.182
68 2 -106.092 -49.967 271.236
69 2 -36.996 -62.981 -68.303
70 2 177.75 -45.458 -151.37 
71 2 -64.009 176.938 120.476
72 2 -144.731 173.586 210.307
73 2 -28.303 29.086 187.865
74 2 -39.127 122.936 95.946
75 2 38.421 148.631 326.093
76 3 103.081 -120.482 192.776
77 3 -1.672 104.529 90.231
78 3 111.54 33.692 -86.554
79 3 26.865 -207.481 -22.29 
80 3 38.673 -82.434 132.791
81 3 98.614 121.406 154.886
82 3 68.04 -68.301 200.787
83 3 376.312 256.015 -202.77 
84 3 -4.066 106.378 17.336
85 3 21.872 100.83 120.739
86 3 283.239 -10.831 89.312
87 3 -60.372 -160.983 46.017
88 3 1.245 182.678 359.035
89 3 22.988 201.61 209.64 
90 3 -204.998 323.406 23.051
91 3 11.599 14.823 349.999
92 3 62.874 343.275 249.171
93 3 205.684 93.674 -43.811
94 3 -72.614 -76.98 -83.623
95 3 23.804 -24.107 172.7 
96 3 230.722 36.674 -1.222
97 3 81.386 309.164 141.779
98 3 194.637 -353.991 402.066
99 3 62.38 270.688 94.108
100 3 115.844 96.913 63.579