LAMMPS (29 Sep 2021 - Update 2)
OMP_NUM_THREADS environment is not set. Defaulting to 1 thread. (src/comm.cpp:98)
  using 1 OpenMP thread(s) per MPI task
Reading data file ...
  orthogonal box = (0.0000000 0.0000000 0.0000000) to (22.332582 33.498872 44.665163)
  1 by 1 by 1 MPI processor grid
  reading atoms ...
  2400 atoms
  reading velocities ...
  2400 velocities
  read_data CPU = 0.011 seconds
NEQUIP is using device cuda
NequIP Coeff: type 1 is element F
NequIP Coeff: type 2 is element Li
NequIP Coeff: type 3 is element Na
Loading model from FLiNa_f_pyt10.2
Freezing TorchScript model...
WARNING: Using 'neigh_modify every 1 delay 0 check yes' setting during minimization (src/min.cpp:188)
Neighbor list info ...
  update every 1 steps, delay 0 steps, check yes
  max neighbors/atom: 2000, page size: 100000
  master list distance cutoff = 7
  ghost atom cutoff = 7
  binsize = 3.5, bins = 7 10 13
  1 neighbor lists, perpetual/occasional/extra = 1 0 0
  (1) pair nequip, perpetual
      attributes: full, newton off
      pair build: full/bin/atomonly
      stencil: full/bin/3d
      bin: standard
Setting up cg style minimization ...
  Unit style    : metal
  Current step  : 0
Per MPI rank memory allocation (min/avg/max) = 5.111 | 5.111 | 5.111 Mbytes
Step Temp E_pair E_mol TotEng Press 
       0    1222.6164    -10609.65            0   -10230.523    12118.982 
       1    1222.6164   -10671.431            0   -10292.303    12118.982 
       2    1222.6164   -10734.402            0   -10355.275    12118.982 
       3    1222.6164   -10787.536            0   -10408.409    12118.982 
       4    1222.6164    -10827.94            0   -10448.813    12118.982 
       5    1222.6164   -10857.093            0   -10477.965    12118.982 
       6    1222.6164   -10878.332            0   -10499.205    12118.982 
       7    1222.6164   -10893.819            0   -10514.692    12118.982 
       8    1222.6164   -10900.916            0   -10521.789    12118.982 
       9    1222.6164   -10909.451            0   -10530.324    12118.982 
      10    1222.6164   -10913.996            0   -10534.869    12118.982 
      11    1222.6164   -10922.008            0    -10542.88    12118.982 
      12    1222.6164   -10925.647            0    -10546.52    12118.982 
      13    1222.6164   -10931.912            0   -10552.785    12118.982 
      14    1222.6164   -10935.153            0   -10556.026    12118.982 
      15    1222.6164   -10940.163            0   -10561.036    12118.982 
      16    1222.6164   -10943.356            0   -10564.229    12118.982 
      17    1222.6164   -10947.397            0    -10568.27    12118.982 
      18    1222.6164   -10950.148            0   -10571.021    12118.982 
      19    1222.6164   -10953.927            0   -10574.799    12118.982 
      20    1222.6164   -10956.125            0   -10576.998    12118.982 
      21    1222.6164   -10959.353            0   -10580.225    12118.982 
      22    1222.6164   -10961.487            0    -10582.36    12118.982 
      23    1222.6164   -10964.075            0   -10584.948    12118.982 
      24    1222.6164   -10966.473            0   -10587.345    12118.982 
      25    1222.6164    -10968.51            0   -10589.382    12118.982 
      26    1222.6164   -10971.786            0   -10592.659    12118.982 
      27    1222.6164   -10973.324            0   -10594.197    12118.982 
      28    1222.6164   -10976.616            0   -10597.489    12118.982 
      29    1222.6164   -10977.915            0   -10598.788    12118.982 
      30    1222.6164   -10979.684            0   -10600.556    12118.982 
      31    1222.6164   -10981.164            0   -10602.037    12118.982 
      32    1222.6164   -10983.375            0   -10604.248    12118.982 
      33    1222.6164   -10984.738            0   -10605.611    12118.982 
      34    1222.6164   -10986.799            0   -10607.671    12118.982 
      35    1222.6164   -10988.322            0   -10609.195    12118.982 
      36    1222.6164   -10990.174            0   -10611.046    12118.982 
      37    1222.6164   -10991.738            0   -10612.611    12118.982 
      38    1222.6164   -10992.857            0    -10613.73    12118.982 
      39    1222.6164   -10993.962            0   -10614.835    12118.982 
      40    1222.6164   -10995.338            0   -10616.211    12118.982 
      41    1222.6164   -10996.841            0   -10617.713    12118.982 
      42    1222.6164   -10998.416            0   -10619.289    12118.982 
      43    1222.6164    -10999.34            0   -10620.213    12118.982 
      44    1222.6164   -11000.592            0   -10621.464    12118.982 
      45    1222.6164   -11001.854            0   -10622.727    12118.982 
      46    1222.6164   -11003.035            0   -10623.908    12118.982 
      47    1222.6164   -11004.158            0   -10625.031    12118.982 
      48    1222.6164   -11005.275            0   -10626.148    12118.982 
      49    1222.6164   -11006.307            0   -10627.179    12118.982 
      50    1222.6164   -11007.341            0   -10628.213    12118.982 
      51    1222.6164   -11008.326            0   -10629.199    12118.982 
      52    1222.6164   -11009.225            0   -10630.097    12118.982 
      53    1222.6164   -11010.154            0   -10631.027    12118.982 
      54    1222.6164   -11010.633            0   -10631.505    12118.982 
      55    1222.6164   -11011.155            0   -10632.028    12118.982 
      56    1222.6164   -11012.062            0   -10632.934    12118.982 
      57    1222.6164   -11012.894            0   -10633.766    12118.982 
      58    1222.6164   -11013.555            0   -10634.427    12118.982 
      59    1222.6164   -11014.172            0   -10635.045    12118.982 
      60    1222.6164   -11014.668            0   -10635.541    12118.982 
      61    1222.6164   -11015.171            0   -10636.044    12118.982 
      62    1222.6164   -11015.786            0   -10636.659    12118.982 
      63    1222.6164   -11016.519            0   -10637.391    12118.982 
      64    1222.6164   -11016.954            0   -10637.827    12118.982 
      65    1222.6164    -11017.43            0   -10638.302    12118.982 
      66    1222.6164   -11017.955            0   -10638.828    12118.982 
      67    1222.6164   -11018.452            0   -10639.325    12118.982 
      68    1222.6164   -11019.016            0   -10639.888    12118.982 
      69    1222.6164   -11019.496            0   -10640.369    12118.982 
      70    1222.6164   -11020.046            0   -10640.919    12118.982 
      71    1222.6164   -11020.636            0   -10641.508    12118.982 
      72    1222.6164   -11021.132            0   -10642.005    12118.982 
      73    1222.6164   -11021.588            0   -10642.461    12118.982 
      74    1222.6164   -11022.107            0    -10642.98    12118.982 
      75    1222.6164   -11022.618            0   -10643.491    12118.982 
      76    1222.6164   -11023.129            0   -10644.002    12118.982 
      77    1222.6164   -11023.576            0   -10644.449    12118.982 
      78    1222.6164   -11023.997            0    -10644.87    12118.982 
      79    1222.6164   -11024.389            0   -10645.261    12118.982 
      80    1222.6164   -11024.683            0   -10645.555    12118.982 
      81    1222.6164   -11025.047            0    -10645.92    12118.982 
      82    1222.6164   -11025.403            0   -10646.276    12118.982 
      83    1222.6164   -11025.789            0   -10646.662    12118.982 
      84    1222.6164   -11026.091            0   -10646.963    12118.982 
      85    1222.6164   -11026.407            0    -10647.28    12118.982 
      86    1222.6164   -11026.653            0   -10647.526    12118.982 
      87    1222.6164   -11026.907            0    -10647.78    12118.982 
      88    1222.6164   -11027.154            0   -10648.027    12118.982 
      89    1222.6164   -11027.414            0   -10648.287    12118.982 
      90    1222.6164   -11027.658            0   -10648.531    12118.982 
      91    1222.6164    -11027.89            0   -10648.762    12118.982 
      92    1222.6164   -11028.105            0   -10648.978    12118.982 
      93    1222.6164   -11028.354            0   -10649.227    12118.982 
      94    1222.6164   -11028.594            0   -10649.466    12118.982 
      95    1222.6164   -11028.807            0   -10649.679    12118.982 
      96    1222.6164   -11029.038            0   -10649.911    12118.982 
      97    1222.6164    -11029.27            0   -10650.142    12118.982 
      98    1222.6164   -11029.544            0   -10650.417    12118.982 
      99    1222.6164   -11029.815            0   -10650.688    12118.982 
     100    1222.6164   -11029.999            0   -10650.872    12118.982 
     101    1222.6164   -11030.204            0   -10651.077    12118.982 
     102    1222.6164   -11030.391            0   -10651.263    12118.982 
     103    1222.6164   -11030.587            0    -10651.46    12118.982 
     104    1222.6164   -11030.723            0   -10651.595    12118.982 
     105    1222.6164   -11030.851            0   -10651.723    12118.982 
     106    1222.6164   -11031.061            0   -10651.933    12118.982 
     107    1222.6164   -11031.217            0   -10652.089    12118.982 
     108    1222.6164   -11031.336            0   -10652.209    12118.982 
     109    1222.6164   -11031.461            0   -10652.334    12118.982 
     110    1222.6164   -11031.592            0   -10652.464    12118.982 
     111    1222.6164   -11031.711            0   -10652.584    12118.982 
     112    1222.6164   -11031.792            0   -10652.665    12118.982 
     113    1222.6164   -11031.895            0   -10652.767    12118.982 
     114    1222.6164   -11031.996            0   -10652.869    12118.982 
     115    1222.6164   -11032.081            0   -10652.954    12118.982 
     116    1222.6164   -11032.229            0   -10653.102    12118.982 
     117    1222.6164   -11032.351            0   -10653.223    12118.982 
     118    1222.6164   -11032.487            0    -10653.36    12118.982 
     119    1222.6164    -11032.62            0   -10653.493    12118.982 
     120    1222.6164   -11032.745            0   -10653.618    12118.982 
     121    1222.6164   -11032.814            0   -10653.687    12118.982 
     122    1222.6164   -11032.933            0   -10653.805    12118.982 
     123    1222.6164   -11033.035            0   -10653.908    12118.982 
     124    1222.6164   -11033.125            0   -10653.998    12118.982 
     125    1222.6164   -11033.196            0   -10654.069    12118.982 
     126    1222.6164   -11033.282            0   -10654.155    12118.982 
     127    1222.6164   -11033.372            0   -10654.245    12118.982 
     128    1222.6164   -11033.473            0   -10654.345    12118.982 
     129    1222.6164    -11033.58            0   -10654.453    12118.982 
     130    1222.6164    -11033.72            0   -10654.592    12118.982 
     131    1222.6164   -11033.833            0   -10654.706    12118.982 
     132    1222.6164   -11033.955            0   -10654.828    12118.982 
     133    1222.6164   -11034.055            0   -10654.927    12118.982 
     134    1222.6164   -11034.173            0   -10655.046    12118.982 
     135    1222.6164   -11034.272            0   -10655.145    12118.982 
     136    1222.6164   -11034.396            0   -10655.268    12118.982 
     137    1222.6164    -11034.51            0   -10655.382    12118.982 
     138    1222.6164   -11034.653            0   -10655.526    12118.982 
     139    1222.6164    -11034.79            0   -10655.663    12118.982 
     140    1222.6164     -11034.9            0   -10655.773    12118.982 
     141    1222.6164   -11034.977            0   -10655.849    12118.982 
     142    1222.6164   -11035.062            0   -10655.935    12118.982 
     143    1222.6164   -11035.216            0   -10656.088    12118.982 
     144    1222.6164   -11035.315            0   -10656.188    12118.982 
     145    1222.6164   -11035.412            0   -10656.285    12118.982 
     146    1222.6164   -11035.526            0   -10656.399    12118.982 
     147    1222.6164   -11035.619            0   -10656.492    12118.982 
     148    1222.6164   -11035.726            0   -10656.598    12118.982 
     149    1222.6164   -11035.898            0   -10656.771    12118.982 
     150    1222.6164   -11036.084            0   -10656.957    12118.982 
     151    1222.6164    -11036.22            0   -10657.092    12118.982 
     152    1222.6164   -11036.435            0   -10657.307    12118.982 
     153    1222.6164    -11036.62            0   -10657.493    12118.982 
     154    1222.6164     -11036.8            0   -10657.672    12118.982 
     155    1222.6164   -11036.831            0   -10657.704    12118.982 
     156    1222.6164   -11036.972            0   -10657.844    12118.982 
     157    1222.6164   -11037.074            0   -10657.947    12118.982 
     158    1222.6164   -11037.165            0   -10658.038    12118.982 
     159    1222.6164   -11037.241            0   -10658.114    12118.982 
     160    1222.6164   -11037.324            0   -10658.197    12118.982 
     161    1222.6164   -11037.437            0   -10658.309    12118.982 
     162    1222.6164   -11037.528            0   -10658.401    12118.982 
     163    1222.6164   -11037.623            0   -10658.496    12118.982 
     164    1222.6164   -11037.714            0   -10658.587    12118.982 
     165    1222.6164   -11037.819            0   -10658.692    12118.982 
     166    1222.6164   -11037.922            0   -10658.795    12118.982 
     167    1222.6164   -11038.006            0   -10658.879    12118.982 
     168    1222.6164   -11038.083            0   -10658.956    12118.982 
     169    1222.6164   -11038.158            0   -10659.031    12118.982 
     170    1222.6164   -11038.227            0   -10659.099    12118.982 
     171    1222.6164   -11038.295            0   -10659.168    12118.982 
     172    1222.6164   -11038.377            0    -10659.25    12118.982 
     173    1222.6164   -11038.444            0   -10659.317    12118.982 
     174    1222.6164   -11038.532            0   -10659.405    12118.982 
     175    1222.6164   -11038.634            0   -10659.506    12118.982 
     176    1222.6164   -11038.754            0   -10659.627    12118.982 
     177    1222.6164   -11038.853            0   -10659.725    12118.982 
     178    1222.6164   -11038.971            0   -10659.843    12118.982 
     179    1222.6164   -11039.056            0   -10659.928    12118.982 
     180    1222.6164    -11039.14            0   -10660.012    12118.982 
     181    1222.6164   -11039.217            0   -10660.089    12118.982 
     182    1222.6164    -11039.31            0   -10660.182    12118.982 
     183    1222.6164   -11039.375            0   -10660.248    12118.982 
     184    1222.6164   -11039.455            0   -10660.328    12118.982 
     185    1222.6164   -11039.526            0   -10660.399    12118.982 
     186    1222.6164   -11039.616            0   -10660.489    12118.982 
     187    1222.6164   -11039.675            0   -10660.547    12118.982 
     188    1222.6164   -11039.706            0   -10660.579    12118.982 
     189    1222.6164   -11039.756            0   -10660.629    12118.982 
     190    1222.6164   -11039.782            0   -10660.655    12118.982 
     191    1222.6164   -11039.813            0   -10660.686    12118.982 
     192    1222.6164   -11039.853            0   -10660.725    12118.982 
     193    1222.6164   -11039.863            0   -10660.736    12118.982 
     194    1222.6164   -11039.909            0   -10660.782    12118.982 
     195    1222.6164   -11039.941            0   -10660.814    12118.982 
     196    1222.6164   -11039.995            0   -10660.868    12118.982 
     197    1222.6164    -11040.05            0   -10660.922    12118.982 
     198    1222.6164   -11040.131            0   -10661.004    12118.982 
     199    1222.6164   -11040.206            0   -10661.079    12118.982 
     200    1222.6164   -11040.285            0   -10661.158    12118.982 
     201    1222.6164   -11040.314            0   -10661.187    12118.982 
     202    1222.6164   -11040.344            0   -10661.216    12118.982 
     203    1222.6164    -11040.38            0   -10661.253    12118.982 
     204    1222.6164   -11040.439            0   -10661.312    12118.982 
     205    1222.6164    -11040.47            0   -10661.342    12118.982 
     206    1222.6164    -11040.53            0   -10661.403    12118.982 
     207    1222.6164   -11040.566            0   -10661.439    12118.982 
     208    1222.6164   -11040.612            0   -10661.485    12118.982 
     209    1222.6164   -11040.672            0   -10661.545    12118.982 
     210    1222.6164    -11040.74            0   -10661.613    12118.982 
     211    1222.6164   -11040.805            0   -10661.677    12118.982 
     212    1222.6164   -11040.866            0   -10661.739    12118.982 
     213    1222.6164   -11040.916            0   -10661.789    12118.982 
     214    1222.6164   -11040.973            0   -10661.845    12118.982 
     215    1222.6164   -11040.995            0   -10661.868    12118.982 
     216    1222.6164   -11041.061            0   -10661.933    12118.982 
     217    1222.6164     -11041.1            0   -10661.972    12118.982 
     218    1222.6164   -11041.146            0   -10662.019    12118.982 
     219    1222.6164   -11041.201            0   -10662.074    12118.982 
     220    1222.6164   -11041.237            0    -10662.11    12118.982 
     221    1222.6164   -11041.271            0   -10662.144    12118.982 
     222    1222.6164   -11041.309            0   -10662.181    12118.982 
     223    1222.6164   -11041.395            0   -10662.267    12118.982 
     224    1222.6164   -11041.472            0   -10662.344    12118.982 
     225    1222.6164   -11041.576            0   -10662.449    12118.982 
     226    1222.6164    -11041.66            0   -10662.533    12118.982 
     227    1222.6164   -11041.741            0   -10662.614    12118.982 
     228    1222.6164   -11041.789            0   -10662.662    12118.982 
     229    1222.6164   -11041.833            0   -10662.706    12118.982 
     230    1222.6164   -11041.902            0   -10662.775    12118.982 
     231    1222.6164   -11041.953            0   -10662.826    12118.982 
     232    1222.6164    -11042.01            0   -10662.882    12118.982 
     233    1222.6164   -11042.068            0   -10662.941    12118.982 
     234    1222.6164   -11042.137            0   -10663.009    12118.982 
     235    1222.6164   -11042.165            0   -10663.038    12118.982 
     236    1222.6164   -11042.202            0   -10663.075    12118.982 
     237    1222.6164   -11042.232            0   -10663.105    12118.982 
     238    1222.6164   -11042.254            0   -10663.127    12118.982 
     239    1222.6164   -11042.281            0   -10663.154    12118.982 
     240    1222.6164   -11042.313            0   -10663.186    12118.982 
     241    1222.6164   -11042.338            0   -10663.211    12118.982 
     242    1222.6164   -11042.356            0   -10663.229    12118.982 
     243    1222.6164   -11042.389            0   -10663.261    12118.982 
     244    1222.6164   -11042.398            0   -10663.271    12118.982 
     245    1222.6164   -11042.429            0   -10663.301    12118.982 
     246    1222.6164   -11042.461            0   -10663.334    12118.982 
     247    1222.6164   -11042.491            0   -10663.364    12118.982 
     248    1222.6164   -11042.542            0   -10663.415    12118.982 
     249    1222.6164   -11042.587            0    -10663.46    12118.982 
     250    1222.6164    -11042.62            0   -10663.493    12118.982 
     251    1222.6164   -11042.655            0   -10663.528    12118.982 
     252    1222.6164   -11042.694            0   -10663.567    12118.982 
     253    1222.6164   -11042.734            0   -10663.607    12118.982 
     254    1222.6164   -11042.771            0   -10663.643    12118.982 
     255    1222.6164   -11042.773            0   -10663.646    12118.982 
     256    1222.6164   -11042.804            0   -10663.676    12118.982 
     257    1222.6164    -11042.83            0   -10663.703    12118.982 
     258    1222.6164    -11042.85            0   -10663.722    12118.982 
     259    1222.6164   -11042.906            0   -10663.779    12118.982 
     260    1222.6164   -11042.925            0   -10663.797    12118.982 
     261    1222.6164   -11042.957            0    -10663.83    12118.982 
     262    1222.6164   -11042.994            0   -10663.867    12118.982 
     263    1222.6164   -11043.034            0   -10663.907    12118.982 
     264    1222.6164   -11043.062            0   -10663.935    12118.982 
     265    1222.6164   -11043.102            0   -10663.974    12118.982 
     266    1222.6164   -11043.106            0   -10663.979    12118.982 
     267    1222.6164   -11043.139            0   -10664.011    12118.982 
     268    1222.6164   -11043.166            0   -10664.039    12118.982 
     269    1222.6164   -11043.188            0    -10664.06    12118.982 
     270    1222.6164   -11043.226            0   -10664.098    12118.982 
     271    1222.6164   -11043.252            0   -10664.125    12118.982 
     272    1222.6164   -11043.295            0   -10664.168    12118.982 
     273    1222.6164   -11043.313            0   -10664.186    12118.982 
     274    1222.6164   -11043.326            0   -10664.199    12118.982 
     275    1222.6164   -11043.339            0   -10664.212    12118.982 
     276    1222.6164   -11043.356            0   -10664.229    12118.982 
     277    1222.6164   -11043.376            0   -10664.249    12118.982 
     278    1222.6164   -11043.396            0   -10664.269    12118.982 
     279    1222.6164   -11043.416            0   -10664.289    12118.982 
     280    1222.6164   -11043.418            0   -10664.291    12118.982 
     281    1222.6164   -11043.427            0   -10664.299    12118.982 
     282    1222.6164   -11043.442            0   -10664.315    12118.982 
     283    1222.6164   -11043.459            0   -10664.332    12118.982 
     284    1222.6164   -11043.468            0    -10664.34    12118.982 
     285    1222.6164   -11043.483            0   -10664.356    12118.982 
     286    1222.6164   -11043.493            0   -10664.366    12118.982 
     287    1222.6164   -11043.497            0    -10664.37    12118.982 
     288    1222.6164   -11043.501            0   -10664.374    12118.982 
     289    1222.6164   -11043.511            0   -10664.383    12118.982 
     290    1222.6164   -11043.524            0   -10664.397    12118.982 
     291    1222.6164    -11043.55            0   -10664.422    12118.982 
     292    1222.6164   -11043.575            0   -10664.448    12118.982 
     293    1222.6164   -11043.607            0    -10664.48    12118.982 
     294    1222.6164   -11043.636            0   -10664.508    12118.982 
     295    1222.6164   -11043.683            0   -10664.555    12118.982 
     296    1222.6164   -11043.709            0   -10664.582    12118.982 
     297    1222.6164   -11043.737            0    -10664.61    12118.982 
     298    1222.6164   -11043.756            0   -10664.629    12118.982 
     299    1222.6164   -11043.784            0   -10664.657    12118.982 
     300    1222.6164   -11043.792            0   -10664.665    12118.982 
     301    1222.6164   -11043.823            0   -10664.696    12118.982 
     302    1222.6164   -11043.854            0   -10664.727    12118.982 
     303    1222.6164   -11043.856            0   -10664.729    12118.982 
     304    1222.6164   -11043.869            0   -10664.742    12118.982 
     305    1222.6164   -11043.871            0   -10664.744    12118.982 
     306    1222.6164   -11043.893            0   -10664.765    12118.982 
     307    1222.6164   -11043.922            0   -10664.795    12118.982 
     308    1222.6164   -11043.933            0   -10664.805    12118.982 
     309    1222.6164   -11043.951            0   -10664.824    12118.982 
     310    1222.6164   -11043.973            0   -10664.845    12118.982 
     311    1222.6164   -11043.991            0   -10664.864    12118.982 
     312    1222.6164   -11044.003            0   -10664.876    12118.982 
     313    1222.6164   -11044.013            0   -10664.885    12118.982 
     314    1222.6164   -11044.035            0   -10664.908    12118.982 
     315    1222.6164   -11044.057            0   -10664.929    12118.982 
     316    1222.6164    -11044.06            0   -10664.932    12118.982 
     317    1222.6164   -11044.069            0   -10664.942    12118.982 
     318    1222.6164   -11044.096            0   -10664.968    12118.982 
     319    1222.6164   -11044.144            0   -10665.016    12118.982 
     320    1222.6164   -11044.163            0   -10665.036    12118.982 
     321    1222.6164   -11044.191            0   -10665.064    12118.982 
     322    1222.6164   -11044.216            0   -10665.088    12118.982 
     323    1222.6164   -11044.239            0   -10665.112    12118.982 
     324    1222.6164   -11044.252            0   -10665.125    12118.982 
     325    1222.6164   -11044.276            0   -10665.149    12118.982 
     326    1222.6164   -11044.298            0   -10665.171    12118.982 
     327    1222.6164    -11044.31            0   -10665.182    12118.982 
     328    1222.6164   -11044.346            0   -10665.218    12118.982 
     329    1222.6164    -11044.37            0   -10665.243    12118.982 
     330    1222.6164    -11044.39            0   -10665.262    12118.982 
     331    1222.6164   -11044.408            0   -10665.281    12118.982 
     332    1222.6164    -11044.44            0   -10665.313    12118.982 
     333    1222.6164   -11044.451            0   -10665.324    12118.982 
     334    1222.6164   -11044.489            0   -10665.362    12118.982 
     335    1222.6164   -11044.514            0   -10665.386    12118.982 
     336    1222.6164   -11044.538            0   -10665.411    12118.982 
     337    1222.6164   -11044.541            0   -10665.414    12118.982 
     338    1222.6164   -11044.544            0   -10665.417    12118.982 
     339    1222.6164   -11044.569            0   -10665.442    12118.982 
     340    1222.6164   -11044.583            0   -10665.456    12118.982 
     341    1222.6164   -11044.586            0   -10665.459    12118.982 
     342    1222.6164   -11044.592            0   -10665.464    12118.982 
     343    1222.6164   -11044.621            0   -10665.494    12118.982 
     344    1222.6164   -11044.646            0   -10665.518    12118.982 
     345    1222.6164    -11044.66            0   -10665.533    12118.982 
     346    1222.6164   -11044.684            0   -10665.556    12118.982 
     347    1222.6164   -11044.713            0   -10665.586    12118.982 
     348    1222.6164   -11044.715            0   -10665.588    12118.982 
Loop time of 124.549 on 1 procs for 348 steps with 2400 atoms

97.6% CPU use with 1 MPI tasks x 1 OpenMP threads

Minimization stats:
  Stopping criterion = energy tolerance
  Energy initial, next-to-last, final = 
      -10609.650390625   -11044.712890625    -11044.71484375
  Force two-norm initial, final = 57.472227 0.37384336
  Force max component initial, final = 4.5260458 0.17071760
  Final line search alpha, max atom move = 0.99513545 0.16988713
  Iterations, force evaluations = 348 627

MPI task timing breakdown:
Section |  min time  |  avg time  |  max time  |%varavg| %total
---------------------------------------------------------------
Pair    | 124.23     | 124.23     | 124.23     |   0.0 | 99.74
Neigh   | 0.22422    | 0.22422    | 0.22422    |   0.0 |  0.18
Comm    | 0.033422   | 0.033422   | 0.033422   |   0.0 |  0.03
Output  | 0.010613   | 0.010613   | 0.010613   |   0.0 |  0.01
Modify  | 0          | 0          | 0          |   0.0 |  0.00
Other   |            | 0.05203    |            |       |  0.04

Nlocal:        2400.00 ave        2400 max        2400 min
Histogram: 1 0 0 0 0 0 0 0 0 0
Nghost:        4912.00 ave        4912 max        4912 min
Histogram: 1 0 0 0 0 0 0 0 0 0
Neighs:         0.00000 ave           0 max           0 min
Histogram: 1 0 0 0 0 0 0 0 0 0
FullNghs:      245346.0 ave      245346 max      245346 min
Histogram: 1 0 0 0 0 0 0 0 0 0

Total # of neighbors = 245346
Ave neighs/atom = 102.22750
Neighbor list builds = 16
Dangerous builds = 0
Setting up Verlet run ...
  Unit style    : metal
  Current step  : 0
  Time step     : 0.001
Per MPI rank memory allocation (min/avg/max) = 3.986 | 3.986 | 3.986 Mbytes
Step Temp E_pair E_mol TotEng Press 
       0         1200   -11044.714            0     -10672.6    11894.801 
     100    611.63254   -10834.915            0   -10645.251    6062.7062 
     200    697.35342   -10813.246            0       -10597    6912.4003 
     300     783.8725   -10781.958            0   -10538.883    7770.0063 
     400    899.36489   -10753.305            0   -10474.416    8914.8055 
     500    982.76203   -10711.682            0   -10406.932    9741.4658 
     600    1087.3506   -10677.567            0   -10340.385    10778.182 
     700    1149.5936   -10637.369            0   -10280.886    11395.156 
     800    1204.9534    -10607.58            0    -10233.93    11943.901 
     900    1236.6707   -10596.367            0   -10212.882    12258.293 
    1000    1238.2945   -10602.456            0   -10218.467    12274.389 
    1100      1200.57    -10609.11            0   -10236.819    11900.451 
    1200    1182.8569   -10619.053            0   -10252.255    11724.873 
    1300    1177.8961   -10618.202            0   -10252.942      11675.7 
    1400    1182.6062   -10606.237            0   -10239.517    11722.389 
    1500    1229.6879   -10606.028            0   -10224.708    12189.077 
    1600    1232.1359   -10602.795            0   -10220.716    12213.343 
    1700      1216.92    -10610.82            0   -10233.459    12062.517 
    1800    1157.7271   -10610.834            0   -10251.828    11475.778 
    1900    1195.9324   -10623.012            0   -10252.159    11854.481 
    2000    1219.5976   -10619.861            0    -10241.67    12089.059 
    2100    1220.8998   -10614.784            0   -10236.189    12101.967 
    2200    1201.4998   -10615.634            0   -10243.055    11909.667 
    2300    1182.5729   -10619.314            0   -10252.604    11722.058 
    2400    1191.2488   -10623.737            0   -10254.337    11808.057 
    2500    1205.9371   -10620.468            0   -10246.513    11953.651 
    2600    1178.6397   -10601.161            0   -10235.671    11683.071 
    2700    1195.5215   -10597.901            0   -10227.176    11850.409 
    2800     1223.282   -10607.322            0   -10227.989     12125.58 
    2900    1187.3819   -10611.109            0   -10242.908    11769.726 
    3000    1187.9615   -10623.767            0   -10255.386    11775.472 
    3100    1179.6724   -10623.506            0   -10257.695    11693.307 
    3200    1201.2528   -10621.462            0   -10248.959    11907.219 
    3300    1185.3744   -10605.145            0   -10237.566    11749.827 
    3400    1217.2915   -10606.964            0   -10229.488      12066.2 
    3500    1215.3313   -10608.406            0   -10231.538     12046.77 
    3600    1198.1978   -10613.313            0   -10241.758    11876.937 
    3700    1175.3558   -10614.392            0    -10249.92    11650.519 
    3800     1181.028   -10615.971            0    -10249.74    11706.744 
    3900    1201.6609   -10616.807            0   -10244.177    11911.265 
    4000     1217.738   -10611.887            0   -10234.272    12070.626 
    4100    1217.2483   -10606.672            0   -10229.209    12065.773 
    4200    1228.9028   -10615.706            0   -10234.629    12181.295 
    4300    1186.2983   -10614.276            0   -10246.411    11758.985 
    4400    1174.0994   -10618.703            0   -10254.621    11638.066 
    4500    1173.0506   -10614.281            0   -10250.524    11627.669 
    4600    1214.7002   -10613.712            0   -10237.039    12040.514 
    4700     1234.264   -10609.806            0   -10227.066    12234.438 
    4800    1218.0249   -10602.081            0   -10224.378     12073.47 
    4900    1218.9674   -10605.712            0   -10227.716    12082.812 
    5000    1203.1399   -10608.295            0   -10235.207    11925.925 
    5100    1174.6852   -10601.919            0   -10237.655    11643.873 
    5200    1204.8301   -10606.205            0   -10232.593    11942.679 
    5300    1220.6855   -10607.182            0   -10228.653    12099.843 
    5400    1221.9712   -10618.748            0   -10239.821    12112.587 
    5500    1172.4303   -10614.496            0   -10250.931    11621.521 
    5600    1200.5844    -10621.49            0   -10249.195    11900.594 
    5700    1189.7394   -10606.003            0   -10237.071    11793.095 
    5800    1211.1841   -10607.192            0    -10231.61    12005.662 
    5900    1215.3517   -10611.185            0    -10234.31    12046.973 
    6000    1210.1386    -10615.15            0   -10239.892    11995.298 
    6100    1171.8872   -10608.399            0   -10245.003    11616.137 
    6200     1144.514   -10606.777            0   -10251.869    11344.805 
    6300    1201.5989   -10619.414            0   -10246.804     11910.65 
    6400    1205.1223   -10607.787            0   -10234.085    11945.575 
    6500    1224.6814   -10612.547            0   -10232.779    12139.451 
    6600    1184.6647   -10607.538            0   -10240.179    11742.793 
    6700    1173.2427   -10614.126            0   -10250.309    11629.574 
    6800    1133.9303    -10612.33            0   -10260.704    11239.897 
    6900    1188.9379   -10615.835            0   -10247.151     11785.15 
    7000     1195.314   -10608.064            0   -10237.403    11848.352 
    7100      1209.89   -10608.134            0   -10232.953    11992.835 
    7200    1178.4243   -10603.205            0   -10237.782    11680.935 
    7300     1194.857   -10612.146            0   -10241.626    11843.822 
    7400     1138.093   -10597.073            0   -10244.156    11281.159 
    7500    1204.2811    -10609.97            0   -10236.528    11937.237 
    7600    1225.6381   -10609.106            0   -10229.042    12148.935 
    7700    1214.3918   -10607.076            0   -10230.499    12037.457 
    7800    1177.2031   -10610.977            0   -10245.932     11668.83 
    7900    1178.2297   -10616.523            0    -10251.16    11679.007 
    8000    1184.5288   -10611.495            0   -10244.179    11741.446 
    8100      1182.43   -10603.451            0   -10236.785    11720.641 
    8200    1215.2881   -10612.426            0   -10235.571    12046.342 
    8300    1202.8529   -10610.406            0   -10237.407     11923.08 
    8400    1210.7885   -10613.276            0   -10237.817    12001.741 
    8500    1183.0651   -10611.089            0   -10244.226    11726.937 
    8600    1151.1236   -10613.493            0   -10256.535    11410.322 
    8700    1193.6469   -10622.068            0   -10251.924    11831.827 
    8800    1216.9494   -10616.672            0   -10239.302    12062.809 
    8900    1213.9302   -10608.468            0   -10232.034    12032.882 
    9000    1207.4359   -10607.447            0   -10233.027    11968.509 
    9100    1205.7883   -10614.046            0   -10240.137    11952.176 
    9200    1183.8511   -10615.052            0   -10247.945    11734.728 
    9300     1178.984   -10618.692            0   -10253.095    11686.484 
    9400    1172.9424   -10605.037            0   -10241.313    11626.597 
    9500     1183.221    -10597.18            0   -10230.269    11728.482 
    9600    1199.6908   -10597.854            0   -10225.836    11891.736 
    9700    1207.8332   -10597.414            0   -10222.871    11972.446 
    9800    1230.9277   -10606.888            0   -10225.183    12201.366 
    9900    1197.5638   -10612.249            0    -10240.89    11870.652 
   10000    1180.7992   -10611.773            0   -10245.613    11704.476 
   10100      1207.13   -10612.045            0    -10237.72    11965.476 
   10200    1224.1204   -10609.867            0   -10230.273    12133.891 
   10300    1194.6856    -10606.13            0   -10235.664    11842.123 
   10400    1185.4497   -10622.833            0   -10255.231    11750.574 
   10500     1165.517   -10614.285            0   -10252.864    11552.994 
   10600    1205.6879   -10615.923            0   -10242.045    11951.182 
   10700    1192.7774   -10612.012            0   -10242.137    11823.208 
   10800     1216.275   -10617.367            0   -10240.206    12056.124 
   10900    1203.6231   -10618.133            0   -10244.895    11930.714 
   11000    1205.3562   -10623.239            0   -10249.464    11947.894 
   11100    1187.2303   -10613.126            0   -10244.972    11768.224 
   11200    1202.7568   -10603.234            0   -10230.265    11922.127 
   11300    1199.9968   -10601.609            0   -10229.496    11894.769 
   11400    1178.8121   -10602.295            0   -10236.751     11684.78 
   11500     1207.772    -10617.95            0   -10243.426     11971.84 
   11600    1130.7417   -10603.326            0   -10252.689     11208.29 
   11700    1152.1403   -10616.782            0   -10259.509      11420.4 
   11800    1177.6854   -10618.215            0    -10253.02    11673.612 
   11900    1205.7177   -10612.108            0   -10238.221    11951.477 
   12000    1212.9784   -10609.737            0   -10233.599    12023.447 
   12100    1155.8157   -10591.345            0   -10232.932    11456.832 
   12200    1202.2253   -10599.742            0   -10226.938    11916.859 
   12300    1208.9929   -10600.938            0   -10226.036    11983.942 
   12400    1184.8448   -10608.026            0   -10240.612    11744.578 
   12500    1194.7089   -10616.603            0   -10246.129    11842.354 
   12600    1188.6164   -10613.639            0   -10245.055    11781.964 
   12700    1219.7723   -10611.996            0   -10233.751    12090.791 
   12800    1235.3447    -10606.96            0   -10223.886     12245.15 
   12900    1183.4633   -10597.149            0   -10230.163    11730.884 
   13000    1211.8456   -10607.355            0   -10231.568    12012.218 
   13100     1187.033   -10607.548            0   -10239.455    11766.268 
   13200    1179.1211   -10613.612            0   -10247.973    11687.842 
   13300    1228.0215   -10623.582            0   -10242.779     12172.56 
   13400    1194.8734   -10606.445            0   -10235.921    11843.985 
   13500     1252.876   -10606.754            0   -10218.243    12418.926 
   13600    1204.8332   -10596.808            0   -10223.195    11942.709 
   13700    1202.0484   -10603.929            0   -10231.179    11915.105 
   13800    1203.4538    -10608.45            0   -10235.265    11929.037 
   13900    1215.9066   -10614.489            0   -10237.443    12052.473 
   14000    1192.0244   -10603.597            0   -10233.956    11815.745 
   14100    1242.5517   -10606.303            0   -10220.994    12316.588 
   14200    1233.9343   -10607.248            0   -10224.611     12231.17 
   14300    1200.1591   -10611.145            0   -10238.981    11896.378 
   14400     1188.502   -10609.037            0   -10240.488    11780.829 
   14500    1197.6505   -10606.222            0   -10234.836    11871.512 
   14600    1228.1247   -10608.914            0   -10228.079    12173.583 
   14700    1203.1531   -10598.309            0   -10225.217    11926.056 
   14800    1232.6108   -10602.241            0   -10220.015     12218.05 
   14900    1213.6468   -10609.358            0   -10233.012    12030.073 
   15000    1205.3505   -10615.341            0   -10241.568    11947.837 
   15100    1157.2951   -10596.937            0   -10238.065    11471.496 
   15200    1215.2306   -10603.426            0   -10226.589    12045.772 
   15300    1208.7839   -10603.001            0   -10228.163     11981.87 
   15400    1191.6491   -10604.253            0   -10234.728    11812.025 
   15500    1201.4706   -10611.896            0   -10239.325    11909.379 
   15600     1186.664   -10618.362            0   -10250.384    11762.611 
   15700    1161.6677   -10623.508            0    -10263.28    11514.838 
   15800    1177.8536   -10620.853            0   -10255.606    11675.278 
   15900    1181.2951   -10609.765            0   -10243.451    11709.392 
   16000    1193.3869   -10607.251            0   -10237.188     11829.25 
   16100    1225.1374   -10617.007            0   -10237.098    12143.972 
   16200    1175.6126   -10613.113            0   -10248.562    11653.065 
   16300     1191.794   -10625.148            0   -10255.579     11813.46 
   16400    1174.5121    -10614.54            0    -10250.33    11642.156 
   16500    1201.2578   -10603.967            0   -10231.463    11907.269 
   16600    1176.9369   -10597.298            0   -10232.335    11666.192 
   16700    1191.1861   -10604.256            0   -10234.875    11807.435 
   16800    1192.0013   -10611.561            0   -10241.927    11815.515 
   16900    1198.9035   -10618.655            0   -10246.881    11883.933 
   17000    1145.2004   -10606.996            0   -10251.875    11351.609 
   17100    1208.0553   -10613.892            0    -10239.28    11974.648 
   17200    1210.9828   -10607.022            0   -10231.503    12003.666 
   17300     1184.135   -10599.842            0   -10232.647    11737.542 
   17400    1187.1502   -10605.801            0   -10237.671    11767.429 
   17500     1171.105   -10614.485            0   -10251.331    11608.385 
   17600    1180.3376   -10620.311            0   -10254.294      11699.9 
   17700    1180.1684   -10607.502            0   -10241.538    11698.224 
   17800    1198.1043   -10602.171            0   -10230.645     11876.01 
   17900    1200.6957   -10606.388            0   -10234.058    11901.697 
   18000    1168.8088   -10605.431            0   -10242.989    11585.624 
   18100    1167.6278   -10609.915            0   -10247.839    11573.917 
   18200    1193.8151   -10608.411            0   -10238.215    11833.495 
   18300    1254.3249   -10613.085            0   -10224.125    12433.288 
   18400    1200.1731   -10606.027            0    -10233.86    11896.517 
   18500    1192.9365    -10612.62            0   -10242.696    11824.785 
   18600    1202.4408   -10620.728            0   -10247.857    11918.995 
   18700    1182.3528    -10611.45            0   -10244.808    11719.877 
   18800    1196.3432   -10596.846            0   -10225.866    11858.553 
   18900    1230.9145   -10604.468            0   -10222.767    12201.236 
   19000    1212.2513   -10610.197            0   -10234.284    12016.241 
   19100    1200.0079   -10613.703            0   -10241.587     11894.88 
   19200    1189.8503   -10612.153            0   -10243.187    11794.194 
   19300    1164.9668   -10600.065            0   -10238.815     11547.54 
   19400    1240.2539   -10608.062            0   -10223.465    12293.812 
   19500    1232.0253   -10610.328            0   -10228.283    12212.247 
   19600    1202.6186    -10609.25            0   -10236.324    11920.758 
   19700    1207.5125   -10611.198            0   -10236.755    11969.268 
   19800     1203.326    -10611.08            0   -10237.935    11927.769 
   19900    1214.7658    -10612.71            0   -10236.017    12041.165 
   20000    1223.6052    -10602.55            0   -10223.116    12128.784 
   20100    1239.0208   -10600.891            0   -10216.676    12281.588 
   20200    1217.2875   -10607.492            0   -10230.017    12066.161 
   20300    1186.6297   -10604.646            0   -10236.677     11762.27 
   20400    1210.7922   -10611.568            0   -10236.108    12001.777 
   20500    1218.4415   -10616.671            0   -10238.838      12077.6 
   20600    1156.9356   -10612.157            0   -10253.397    11467.933 
   20700    1186.5189   -10622.433            0   -10254.499    11761.172 
   20800    1159.6617   -10603.258            0   -10243.652    11494.954 
   20900    1215.8242   -10615.692            0   -10238.671    12051.656 
   21000    1203.7795   -10612.527            0   -10239.241    11932.265 
   21100    1195.6518   -10608.491            0   -10237.725      11851.7 
   21200     1216.891   -10608.859            0   -10231.507     12062.23 
   21300     1214.828   -10602.588            0   -10225.876    12041.781 
   21400    1215.9067   -10602.954            0   -10225.907    12052.474 
   21500    1200.1936   -10611.326            0   -10239.152    11896.721 
   21600    1211.7665   -10621.467            0   -10245.704    12011.434 
   21700    1208.5201   -10625.415            0   -10250.659    11979.255 
   21800    1198.5193   -10626.338            0   -10254.683    11880.124 
   21900     1181.318   -10617.184            0   -10250.863    11709.619 
   22000    1230.0541    -10616.78            0   -10235.347    12192.708 
   22100    1220.7191   -10607.329            0    -10228.79    12100.176 
   22200    1221.1017   -10614.209            0   -10235.551    12103.968 
   22300    1162.7179   -10608.169            0   -10247.616    11525.248 
   22400    1189.3367   -10616.275            0   -10247.468    11789.103 
   22500    1228.3852   -10623.197            0   -10242.281    12176.165 
   22600    1204.2636   -10605.011            0   -10231.575    11937.064 
   22700    1226.4445   -10598.403            0   -10218.089    12156.928 
   22800    1224.7803    -10598.94            0   -10219.142    12140.431 
   22900    1199.8508   -10612.472            0   -10240.404    11893.323 
   23000    1192.6576   -10612.327            0    -10242.49    11822.021 
   23100    1211.5442   -10613.228            0   -10237.534    12009.231 
   23200    1177.2971   -10598.943            0   -10233.869    11669.763 
   23300    1194.3309   -10600.407            0   -10230.051    11838.607 
   23400    1172.5649   -10601.739            0   -10238.133    11622.855 
   23500    1176.3473   -10613.206            0   -10248.427    11660.348 
   23600    1214.5318    -10624.74            0    -10248.12    12038.845 
   23700    1212.4488   -10614.353            0   -10238.378    12018.198 
   23800    1215.1524   -10602.206            0   -10225.393    12044.997 
   23900    1211.8114   -10600.627            0    -10224.85     12011.88 
   24000    1217.9047    -10614.25            0   -10236.584    12072.279 
   24100    1190.8883   -10613.859            0   -10244.571    11804.482 
   24200    1200.2237   -10612.702            0   -10240.519    11897.018 
   24300    1195.1853   -10604.813            0   -10234.192    11847.076 
   24400    1227.5366   -10606.479            0   -10225.826    12167.754 
   24500    1200.1867   -10605.353            0   -10233.181    11896.651 
   24600     1204.545   -10623.395            0   -10249.871    11939.853 
   24700    1180.7994   -10616.576            0   -10250.416    11704.479 
   24800    1180.7952    -10610.98            0   -10244.822    11704.437 
   24900    1219.9535    -10609.58            0   -10231.279    12092.587 
   25000    1197.9148   -10602.092            0   -10230.624    11874.132 
   25100    1201.4485   -10607.559            0   -10234.995    11909.159 
   25200    1188.1074   -10605.426            0       -10237    11776.918 
   25300    1216.4594   -10615.433            0   -10238.215    12057.953 
   25400    1180.6401   -10616.768            0   -10250.657    11702.899 
   25500    1150.0987   -10615.062            0   -10258.422    11400.162 
   25600      1199.73   -10621.358            0   -10249.328    11892.125 
   25700    1192.4709   -10611.144            0   -10241.364     11820.17 
   25800    1214.1156   -10610.436            0   -10233.944    12034.719 
   25900    1185.8377   -10600.687            0   -10232.964     11754.42 
   26000    1177.3839   -10605.303            0   -10240.202    11670.622 
   26100    1175.7016   -10617.455            0   -10252.876    11653.948 
   26200    1182.8087   -10619.491            0   -10252.708    11724.395 
   26300    1217.0935   -10610.326            0   -10232.911    12064.238 
   26400    1221.9339   -10609.503            0   -10230.587    12112.217 
   26500    1216.9342   -10614.062            0   -10236.696    12062.659 
   26600    1159.0769   -10604.401            0   -10244.977    11489.157 
   26700    1212.5441   -10617.055            0   -10241.051    12019.143 
   26800     1212.461   -10599.794            0   -10223.816    12018.319 
   26900    1247.9547   -10611.605            0   -10224.621    12370.144 
   27000    1217.1618   -10613.574            0   -10236.138    12064.914 
   27100    1199.6003   -10613.052            0   -10241.062    11890.839 
   27200    1189.2631   -10608.646            0   -10239.862    11788.373 
   27300    1184.2414   -10602.342            0   -10235.114    11738.597 
   27400    1220.5656   -10598.389            0   -10219.897    12098.655 
   27500    1219.0062   -10591.726            0   -10213.718    12083.197 
   27600       1258.1   -10614.807            0   -10224.676    12470.708 
   27700    1210.5238    -10609.34            0   -10233.962    11999.116 
   27800    1212.3995   -10618.918            0   -10242.959    12017.709 
   27900    1192.3503   -10617.149            0   -10247.407    11818.975 
   28000     1198.635   -10609.963            0   -10238.272    11881.271 
   28100    1239.0943    -10612.17            0   -10227.933    12282.317 
   28200    1220.5446   -10609.104            0   -10230.619    12098.446 
   28300    1163.3258   -10596.589            0   -10235.847    11531.274 
   28400    1221.5276   -10613.597            0   -10234.807     12108.19 
   28500    1188.3148   -10609.656            0   -10241.166    11778.973 
   28600    1187.6311   -10615.981            0   -10247.703    11772.196 
   28700    1193.3334   -10608.946            0   -10238.899     11828.72 
   28800    1233.2324   -10607.295            0   -10224.876    12224.212 
   28900    1231.3117   -10614.829            0   -10233.005    12205.173 
   29000    1208.3179   -10617.598            0   -10242.904    11977.251 
   29100    1211.8508   -10621.202            0   -10245.413     12012.27 
   29200     1171.064   -10606.525            0   -10243.384    11607.978 
   29300    1232.2241    -10610.14            0   -10228.033    12214.217 
   29400    1221.9465     -10607.5            0    -10228.58    12112.342 
   29500    1180.5509   -10604.354            0    -10238.27    11702.016 
   29600    1197.1714   -10623.591            0   -10252.354    11866.763 
   29700       1160.2   -10621.944            0   -10262.172     11500.29 
   29800    1161.9197   -10625.796            0    -10265.49    11517.337 
   29900    1179.4731   -10615.155            0   -10249.406    11691.331 
   30000     1240.264   -10621.238            0   -10236.638    12293.912 
   30100    1212.5379   -10611.079            0   -10235.077    12019.081 
   30200    1196.2598   -10605.727            0   -10234.772    11857.727 
   30300     1210.127   -10607.561            0   -10232.306    11995.184 
   30400    1189.7554   -10601.467            0    -10232.53    11793.253 
   30500    1234.3114   -10617.191            0   -10234.438    12234.907 
   30600    1194.3871   -10609.309            0   -10238.935    11839.164 
   30700    1213.7183   -10621.189            0   -10244.821    12030.782 
   30800    1194.6429    -10621.37            0   -10250.917      11841.7 
   30900    1171.3183   -10615.781            0   -10252.561    11610.498 
   31000    1217.6851   -10613.817            0   -10236.219    12070.102 
   31100    1235.9735   -10615.103            0   -10231.833    12251.383 
   31200     1184.721   -10607.335            0   -10239.959     11743.35 
   31300     1236.319   -10624.895            0   -10241.518    12254.807 
   31400    1200.8949   -10612.875            0   -10240.483    11903.672 
   31500    1230.0041   -10609.148            0    -10227.73    12192.212 
   31600    1215.8531   -10605.403            0   -10228.373    12051.943 
   31700    1168.4155   -10600.296            0   -10237.976    11581.725 
   31800    1191.7481   -10620.696            0   -10251.141    11813.006 
   31900    1184.4137   -10616.607            0   -10249.327    11740.305 
   32000    1211.8201   -10619.841            0   -10244.061    12011.966 
   32100    1176.9261   -10607.072            0   -10242.113    11666.085 
   32200    1168.2731   -10613.412            0   -10251.136    11580.313 
   32300    1192.1025   -10625.397            0   -10255.732    11816.519 
   32400    1211.7997   -10617.521            0   -10241.748    12011.764 
   32500     1202.563   -10608.989            0    -10236.08    11920.206 
   32600     1226.235   -10615.461            0   -10235.211    12154.851 
   32700    1211.4872   -10619.147            0   -10243.471    12008.666 
   32800    1207.1907   -10629.152            0   -10254.808    11966.078 
   32900    1173.0285   -10618.937            0   -10255.186    11627.451 
   33000    1219.4611   -10612.741            0   -10234.592    12087.706 
   33100    1215.0718   -10609.736            0   -10232.949    12044.197 
   33200    1195.4036   -10608.295            0   -10237.606     11849.24 
   33300    1201.4934   -10618.084            0   -10245.507    11909.604 
   33400    1154.6684   -10612.738            0   -10254.681    11445.459 
   33500    1195.6543   -10615.226            0   -10244.459    11851.725 
   33600    1215.6566   -10608.829            0    -10231.86    12049.994 
   33700    1212.1688   -10607.972            0   -10232.084    12015.423 
   33800    1206.3944   -10612.093            0   -10237.996    11958.185 
   33900    1184.6798    -10614.38            0   -10247.017    11742.942 
   34000    1209.0035   -10618.887            0   -10243.981    11984.047 
   34100     1212.661   -10603.747            0   -10227.707    12020.301 
   34200     1192.142   -10597.405            0   -10227.728     11816.91 
   34300    1210.1239    -10608.98            0   -10233.727    11995.153 
   34400    1173.7888    -10604.26            0   -10240.274    11634.987 
   34500    1184.5158   -10606.304            0   -10238.991    11741.316 
   34600    1211.7218   -10611.721            0   -10235.972    12010.992 
   34700    1202.5256   -10608.145            0   -10235.247    11919.835 
   34800    1205.6961   -10612.965            0   -10239.084    11951.263 
   34900    1206.8184   -10616.297            0   -10242.068    11962.388 
   35000      1205.96   -10616.683            0    -10242.72    11953.879 
   35100    1201.1782    -10613.67            0    -10241.19     11906.48 
   35200    1225.6736   -10614.479            0   -10234.404    12149.286 
   35300    1223.2438   -10603.208            0   -10223.886    12125.201 
   35400    1205.3822   -10603.074            0   -10229.291    11948.152 
   35500    1214.6865   -10616.958            0    -10240.29    12040.379 
   35600    1173.7495   -10610.871            0   -10246.897    11634.597 
   35700    1229.3703   -10615.703            0   -10234.481     12185.93 
   35800    1211.7266   -10610.641            0    -10234.89     12011.04 
   35900    1191.4934   -10611.013            0   -10241.536    11810.481 
   36000    1181.0284   -10612.421            0    -10246.19    11706.748 
   36100    1204.5772    -10611.45            0   -10237.917    11940.172 
   36200    1235.2871   -10607.838            0   -10224.781    12244.579 
   36300    1232.2716   -10609.461            0    -10227.34    12214.688 
   36400    1220.2943   -10615.259            0   -10236.852    12095.966 
   36500     1183.933   -10608.488            0   -10241.356    11735.539 
   36600    1211.5169   -10614.016            0    -10238.33     12008.96 
   36700    1180.9719   -10607.189            0   -10240.976    11706.188 
   36800     1167.909   -10604.484            0   -10242.322    11576.704 
   36900    1197.7908   -10609.083            0   -10237.654    11872.903 
   37000    1212.9345   -10613.594            0   -10237.469    12023.013 
   37100    1180.2096   -10603.696            0   -10237.719    11698.632 
   37200    1201.4844   -10603.447            0   -10230.873    11909.515 
   37300    1209.0049   -10599.464            0   -10224.557    11984.061 
   37400    1193.8484   -10604.845            0   -10234.638    11833.824 
   37500    1209.5074    -10620.31            0   -10245.247    11989.042 
   37600    1215.8847    -10621.63            0    -10244.59    12052.256 
   37700    1182.3377   -10611.479            0   -10244.841    11719.727 
   37800    1208.8072   -10614.925            0    -10240.08    11982.101 
   37900    1202.6402   -10598.876            0   -10225.943    11920.972 
   38000    1220.1121   -10603.488            0   -10225.138    12094.159 
   38100    1165.8953   -10599.832            0   -10238.294    11556.744 
   38200    1200.9453   -10612.071            0   -10239.664    11904.171 
   38300    1201.3168    -10611.15            0   -10238.628    11907.854 
   38400    1203.6833   -10614.117            0   -10240.861    11931.311 
   38500    1189.3578   -10613.641            0   -10244.827    11789.312 
   38600    1197.5746    -10610.02            0   -10238.658     11870.76 
   38700    1213.3385    -10606.23            0    -10229.98    12027.017 
   38800    1183.6196       -10598            0   -10230.965    11732.433 
   38900    1195.1353   -10611.339            0   -10240.733    11846.581 
   39000     1165.102   -10615.009            0   -10253.716     11548.88 
   39100    1182.5108   -10618.889            0   -10252.198    11721.442 
   39200    1197.7996   -10618.033            0   -10246.601     11872.99 
   39300    1192.1343   -10610.635            0    -10240.96    11816.834 
   39400    1218.7063   -10611.604            0   -10233.689    12080.224 
   39500    1196.5984   -10601.935            0   -10230.875    11861.083 
   39600    1216.8013   -10612.743            0   -10235.419    12061.341 
   39700    1150.4839   -10608.191            0   -10251.432    11403.981 
   39800    1217.5618    -10625.43            0    -10247.87     12068.88 
   39900    1201.4405    -10613.87            0   -10241.309     11909.08 
   40000    1224.4789   -10613.428            0   -10233.723    12137.444 
   40100    1228.9977   -10604.396            0   -10223.289    12182.236 
   40200    1216.7119   -10591.184            0   -10213.887    12060.456 
   40300    1232.6188   -10605.405            0   -10223.176     12218.13 
   40400    1189.1136   -10606.849            0    -10238.11    11786.891 
   40500     1195.615   -10615.958            0   -10245.204    11851.336 
   40600    1199.8891   -10619.737            0   -10247.658    11893.702 
   40700    1219.0165   -10613.605            0   -10235.594    12083.299 
   40800     1242.942   -10615.759            0   -10230.329    12320.457 
   40900    1199.9859   -10610.009            0   -10237.899    11894.661 
   41000    1187.8338   -10610.668            0   -10242.327    11774.205 
   41100    1186.8219   -10610.973            0   -10242.945    11764.176 
   41200    1204.7308   -10612.024            0   -10238.443    11941.694 
   41300    1215.7084   -10600.742            0   -10223.757    12050.508 
   41400    1206.6158    -10598.35            0   -10224.184     11960.38 
   41500     1195.431   -10607.186            0   -10236.488    11849.512 
   41600    1218.7108   -10623.798            0   -10245.882    12080.269 
   41700    1208.7337   -10623.324            0   -10248.502    11981.373 
   41800    1202.4961   -10616.428            0    -10243.54    11919.543 
   41900    1198.0704   -10604.008            0   -10232.492    11875.675 
   42000    1217.2454    -10610.02            0   -10232.558    12065.743 
   42100    1154.7994   -10610.488            0   -10252.391    11446.758 
   42200    1187.8035   -10617.714            0   -10249.382    11773.905 
   42300    1192.2481   -10608.184            0   -10238.473    11817.962 
   42400    1223.6628   -10612.577            0   -10233.125    12129.355 
   42500     1186.308   -10604.576            0   -10236.708    11759.081 
   42600    1211.5455   -10618.427            0   -10242.732    12009.245 
   42700    1180.7375   -10624.013            0   -10257.872    11703.865 
   42800    1166.3417   -10615.129            0   -10253.452    11561.169 
   42900    1187.3986   -10608.164            0   -10239.958    11769.892 
   43000    1222.0213   -10613.925            0   -10234.982    12113.084 
   43100    1189.4484   -10605.914            0   -10237.072    11790.211 
   43200    1154.9147   -10607.593            0   -10249.459    11447.901 
   43300    1164.7033   -10610.916            0   -10249.747    11544.929 
   43400     1206.362   -10612.423            0   -10238.336    11957.864 
   43500    1194.1178   -10603.832            0   -10233.542    11836.495 
   43600    1212.4343   -10608.771            0   -10232.801    12018.054 
   43700    1217.5141   -10614.995            0    -10237.45    12068.406 
   43800     1192.269   -10614.521            0   -10244.805    11818.169 
   43900    1160.7625   -10613.019            0   -10253.072    11505.866 
   44000     1182.247    -10616.49            0   -10249.881    11718.827 
   44100    1224.1954   -10612.932            0   -10233.315    12134.634 
   44200    1214.1015   -10606.383            0   -10229.896     12034.58 
   44300    1217.4955   -10605.655            0   -10228.116    12068.223 
   44400    1226.8299   -10609.385            0   -10228.951    12160.748 
   44500    1167.5534   -10604.498            0   -10242.445     11573.18 
   44600    1190.3506   -10613.091            0   -10243.969    11799.153 
   44700    1193.3167   -10606.896            0   -10236.854    11828.554 
   44800    1222.8917   -10601.232            0    -10222.02    12121.712 
   44900    1231.9058   -10605.087            0   -10223.079    12211.062 
   45000    1218.5835   -10610.566            0    -10232.69    12079.007 
   45100    1210.0089   -10613.217            0   -10237.999    11994.013 
   45200     1180.873   -10611.329            0   -10245.146    11705.208 
   45300    1171.1367   -10608.846            0   -10245.682    11608.698 
   45400     1239.709   -10613.872            0   -10229.444    12288.411 
   45500    1210.4517   -10603.881            0   -10228.526    11998.402 
   45600    1226.7457    -10616.89            0   -10236.482    12159.913 
   45700    1191.4971   -10612.903            0   -10243.426    11810.518 
   45800    1222.9004    -10619.28            0   -10240.065    12121.797 
   45900    1218.1684   -10614.044            0   -10236.296    12074.892 
   46000    1218.5935   -10616.508            0   -10238.628    12079.106 
   46100    1166.9131   -10618.915            0   -10257.061    11566.833 
   46200    1187.7508   -10625.319            0   -10257.004    11773.383 
   46300    1212.6553   -10622.224            0   -10246.185    12020.244 
   46400    1192.1838   -10610.786            0   -10241.096    11817.325 
   46500    1199.2912   -10611.216            0   -10239.322    11887.776 
   46600    1179.3822   -10606.851            0    -10241.13    11690.431 
   46700    1184.1142   -10608.302            0   -10241.114    11737.336 
   46800    1176.3076   -10600.234            0   -10235.467    11659.955 
   46900    1222.4904   -10606.991            0   -10227.903    12117.734 
   47000    1197.1253   -10603.962            0   -10232.739    11866.306 
   47100    1171.5294   -10608.216            0    -10244.93    11612.591 
   47200    1211.3418   -10619.911            0    -10244.28    12007.225 
   47300    1229.9641   -10620.405            0   -10238.999    12191.815 
   47400    1224.4939   -10603.177            0   -10223.467    12137.593 
   47500     1210.946   -10598.746            0   -10223.238    12003.301 
   47600    1192.3976   -10602.396            0    -10232.64    11819.444 
   47700    1169.8834   -10605.362            0   -10242.587    11596.275 
   47800    1190.7803   -10609.326            0   -10240.071    11803.413 
   47900    1247.9685   -10607.109            0    -10220.12    12370.281 
   48000    1207.7301   -10597.642            0    -10223.13    11971.425 
   48100     1205.375   -10605.605            0   -10231.825     11948.08 
   48200    1203.6326   -10613.798            0   -10240.557    11930.809 
   48300    1193.9238   -10615.299            0   -10245.069    11834.572 
   48400    1208.6479   -10621.302            0   -10246.506    11980.522 
   48500    1200.8213   -10608.251            0   -10235.882    11902.942 
   48600    1227.6928   -10603.645            0   -10222.943    12169.302 
   48700    1187.6835   -10599.122            0   -10230.827    11772.716 
   48800    1203.5986   -10611.098            0   -10237.868    11930.472 
   48900    1206.2698   -10614.419            0   -10240.361    11956.949 
   49000    1220.3952   -10613.323            0   -10234.885    12096.965 
   49100    1232.0671   -10606.743            0   -10224.685    12212.661 
   49200    1192.8799   -10598.545            0   -10228.639    11824.224 
   49300    1215.4357    -10616.43            0   -10239.529    12047.805 
   49400    1179.5796    -10611.15            0   -10245.369    11692.388 
   49500    1199.6807   -10612.543            0   -10240.528    11891.636 
   49600    1210.3557   -10607.851            0   -10232.525     11997.45 
   49700    1189.9263   -10598.934            0   -10229.943    11794.948 
   49800    1215.4881    -10607.81            0   -10230.893    12048.325 
   49900    1211.2984    -10618.12            0   -10242.502    12006.795 
   50000    1173.1789   -10615.396            0   -10251.599    11628.941 
Loop time of 9480.62 on 1 procs for 50000 steps with 2400 atoms

Performance: 0.456 ns/day, 52.670 hours/ns, 5.274 timesteps/s
97.4% CPU use with 1 MPI tasks x 1 OpenMP threads

MPI task timing breakdown:
Section |  min time  |  avg time  |  max time  |%varavg| %total
---------------------------------------------------------------
Pair    | 9445.8     | 9445.8     | 9445.8     |   0.0 | 99.63
Neigh   | 28.141     | 28.141     | 28.141     |   0.0 |  0.30
Comm    | 2.8022     | 2.8022     | 2.8022     |   0.0 |  0.03
Output  | 0.015674   | 0.015674   | 0.015674   |   0.0 |  0.00
Modify  | 3.0184     | 3.0184     | 3.0184     |   0.0 |  0.03
Other   |            | 0.8604     |            |       |  0.01

Nlocal:        2400.00 ave        2400 max        2400 min
Histogram: 1 0 0 0 0 0 0 0 0 0
Nghost:        4837.00 ave        4837 max        4837 min
Histogram: 1 0 0 0 0 0 0 0 0 0
Neighs:         0.00000 ave           0 max           0 min
Histogram: 1 0 0 0 0 0 0 0 0 0
FullNghs:      245388.0 ave      245388 max      245388 min
Histogram: 1 0 0 0 0 0 0 0 0 0

Total # of neighbors = 245388
Ave neighs/atom = 102.24500
Neighbor list builds = 2091
Dangerous builds = 0
Setting up Verlet run ...
  Unit style    : metal
  Current step  : 50000
  Time step     : 0.001
Per MPI rank memory allocation (min/avg/max) = 4.236 | 4.236 | 4.236 Mbytes
Step Temp E_pair TotEng f_3 v_tdiff 
   50000         1200   -10615.395    -10243.28            0            0 
   51000    1169.7456    -10605.99   -10243.258    46.905522  0.036400343 
   52000    1202.0082   -10616.017    -10243.28    87.697909  0.055371255 
   53000    1189.6357   -10612.183   -10243.282    127.10982  0.064542039 
   54000    1187.9881   -10611.646   -10243.257    164.77616  0.065538225 
   55000    1169.2312    -10605.86   -10243.287    203.87154  0.070943169 
   56000    1188.1938   -10611.727   -10243.274    241.14243  0.077035855 
   57000    1205.8056   -10617.187   -10243.272    277.18254  0.069472711 
   58000    1197.9545   -10614.779   -10243.299    312.54318  0.070328856 
   59000    1185.3068   -10610.834   -10243.276    350.35384  0.067931541 
   60000    1187.0192   -10611.354   -10243.265    390.92773  0.063946508 
   61000    1171.3962   -10606.519   -10243.274    429.45303  0.067193735 
   62000    1185.6085   -10610.898   -10243.247    467.25203  0.070077459 
   63000    1200.5055   -10615.551    -10243.28    505.92587  0.065719349 
   64000    1201.3928     -10615.8   -10243.254    544.72808  0.061345581 
   65000    1214.7693   -10619.958   -10243.264    581.92128  0.060521901 
   66000    1181.4463   -10609.617   -10243.256    618.17688  0.067759187 
   67000    1201.8142   -10615.934   -10243.257    655.42817  0.070924409 
   68000    1194.0319   -10613.514    -10243.25    692.65795  0.071593652 
   69000     1219.706   -10621.495    -10243.27    729.59042  0.071253339 
   70000    1182.4147   -10609.911    -10243.25    767.07407  0.073130761 
   71000    1197.7989   -10614.688   -10243.256    806.35709   0.06279863 
   72000     1155.891   -10601.687    -10243.25    844.23055  0.060514372 
   73000    1182.8473   -10610.051   -10243.256    882.61806  0.068281636 
   74000    1168.9555    -10605.76   -10243.272    920.11591  0.063816097 
   75000    1227.1848   -10623.816   -10243.272    960.16218  0.073317862 
   76000    1177.3645   -10608.351   -10243.256    998.93284  0.074292519 
   77000    1188.1456   -10611.697   -10243.259    1038.0936  0.075297493 
   78000    1179.0279    -10608.89   -10243.279    1074.2032   0.06870005 
   79000    1171.2646   -10606.469   -10243.265    1111.6862  0.065285266 
   80000    1177.4028   -10608.385   -10243.278    1149.4269  0.062336192 
   81000    1194.8745   -10613.814    -10243.29    1186.5031  0.070666654 
   82000    1206.0151   -10617.244   -10243.265    1223.1422  0.074848661 
   83000    1199.0281   -10615.084   -10243.271    1258.6613  0.070162037 
   84000    1172.1107   -10606.739   -10243.273    1296.5172  0.069622144 
   85000    1166.1723   -10604.896   -10243.272    1335.6027  0.071154568 
   86000    1208.4589    -10618.03   -10243.293    1374.7521  0.066369194 
   87000    1184.9026   -10610.721   -10243.288    1412.6196  0.069207422 
   88000    1202.3922   -10616.138   -10243.282    1450.7846  0.066294464 
   89000    1215.0196   -10620.056   -10243.284    1488.2696  0.067089395 
   90000    1212.2837   -10619.181   -10243.257    1525.0231  0.067485274 
   91000    1166.9859   -10605.146    -10243.27     1564.216  0.067086987 
   92000    1183.0911   -10610.109   -10243.239    1600.7983  0.068988188 
   93000    1205.0458   -10616.955   -10243.276    1640.0969  0.067699908 
   94000    1203.1644    -10616.35   -10243.254     1677.628  0.062392125 
   95000    1187.6268   -10611.548   -10243.271    1713.1035  0.070075549 
   96000    1190.5105   -10612.458   -10243.287    1750.9351  0.070994531 
   97000     1159.641   -10602.836   -10243.237    1788.0089  0.072286862 
   98000    1183.4697   -10610.259   -10243.271    1826.0565  0.068106242 
   99000    1203.0286   -10616.315   -10243.262    1861.4072  0.067014382 
  100000    1211.0582   -10618.806   -10243.262    1899.3107    0.0686226 
  101000    1198.7441   -10614.979   -10243.255    1937.2594  0.063359353 
  102000    1190.6657   -10612.455   -10243.235    1973.2655  0.064983537 
  103000    1200.8033   -10615.615   -10243.252    2010.9774  0.069182779 
  104000    1194.4225   -10613.621   -10243.237    2047.6806  0.077103384 
  105000    1210.1362   -10618.531   -10243.274    2083.4075   0.06978837 
  106000    1193.1457   -10613.248   -10243.259    2122.0066  0.074612667 
  107000    1158.3178   -10602.423   -10243.234    2159.1981  0.062325475 
  108000     1196.711    -10614.34   -10243.246     2197.375   0.06859989 
  109000    1197.9347   -10614.715   -10243.241    2235.1133  0.067289909 
  110000    1214.6892   -10619.933   -10243.263    2271.1166  0.069569401 
  111000    1188.4028   -10611.762   -10243.244    2308.6909   0.06604974 
  112000     1188.266   -10611.699   -10243.224     2345.835  0.065154134 
  113000    1168.4439    -10605.56   -10243.231    2384.0444  0.069928903 
  114000    1195.9627   -10614.097   -10243.235     2421.058  0.067316117 
  115000    1200.2372    -10615.41   -10243.222    2460.7316  0.071591922 
  116000    1219.3943   -10621.359   -10243.231    2498.9901  0.069589504 
  117000    1205.8632   -10617.149   -10243.217    2535.3318  0.072508602 
  118000     1169.796   -10605.974   -10243.226    2573.4779  0.067004099 
  119000    1186.0917   -10611.022   -10243.221     2611.086  0.066941609 
  120000    1191.6196   -10612.746   -10243.231    2649.6354  0.068599869 
  121000    1168.4607   -10605.548   -10243.214    2687.0085  0.071135046 
  122000    1169.3007   -10605.819   -10243.225    2723.5189  0.069006372 
  123000    1193.3363   -10613.285   -10243.237    2760.5003  0.070781951 
  124000    1209.4838   -10618.271   -10243.216    2797.2543   0.06628744 
  125000    1173.1339   -10606.982   -10243.199    2835.0076  0.064793213 
  126000    1171.5904   -10606.516   -10243.211    2872.3939  0.062553466 
  127000    1219.0044   -10621.213   -10243.206    2909.1851  0.067460739 
  128000    1190.1354   -10612.272   -10243.217    2947.9569  0.067191838 
  129000    1205.1989   -10616.945   -10243.219     2984.778  0.074747304 
  130000     1177.092    -10608.23    -10243.22    3019.2765  0.078227769 
  131000    1193.0064   -10613.155    -10243.21    3059.0062  0.068105903 
  132000     1221.016   -10621.858   -10243.227    3096.1947   0.06785969 
  133000    1185.2623   -10610.754    -10243.21    3135.2007  0.070159783 
  134000    1201.1678   -10615.695   -10243.219    3172.5796   0.06902693 
  135000     1238.201   -10627.177   -10243.217     3211.998  0.067157876 
  136000     1199.494   -10615.181   -10243.223    3248.0192  0.076316063 
  137000    1205.4069   -10616.994   -10243.203    3282.7786  0.076277759 
  138000    1175.1393   -10607.608   -10243.203    3319.6957  0.070139815 
  139000     1204.122   -10616.592   -10243.199    3358.5551  0.071529544 
  140000    1190.5982   -10612.395   -10243.196    3395.4878  0.070774135 
  141000     1206.796   -10617.432    -10243.21    3433.2245  0.065233161 
  142000    1203.9619   -10616.544   -10243.201    3470.6214  0.064898593 
  143000    1189.8724   -10612.182   -10243.208     3507.704   0.06633793 
  144000    1192.8867   -10613.099    -10243.19    3544.4824  0.067977595 
  145000    1192.1496   -10612.853   -10243.173    3581.9724  0.068587089 
  146000    1206.0906   -10617.201   -10243.198    3617.9286  0.067129489 
  147000    1202.7218   -10616.143   -10243.184    3654.5856  0.071552665 
  148000    1197.5478   -10614.575   -10243.221    3691.7184  0.071980562 
  149000      1201.93     -10615.9   -10243.188    3728.3828  0.075363053 
  150000    1190.0027   -10612.193   -10243.179    3766.7693  0.071585578 
  151000    1169.8888    -10605.95   -10243.173    3805.2225  0.064164363 
  152000    1201.4581   -10615.743   -10243.177    3846.1148  0.068420368 
  153000    1190.8569   -10612.479   -10243.201    3883.3495  0.069681358 
  154000    1155.0934   -10601.358    -10243.17    3920.5034  0.072456841 
  155000    1179.5656   -10608.981   -10243.204    3956.7376  0.075780802 
  156000    1173.3026   -10607.023   -10243.188    3991.6417  0.064308348 
  157000    1190.4311   -10612.334   -10243.187    4029.2757  0.067087273 
  158000    1196.2605   -10614.149   -10243.195    4066.8044  0.072116683 
  159000    1196.3619   -10614.169   -10243.183    4103.9802  0.068175055 
  160000    1198.7354   -10614.914   -10243.192    4139.7519  0.066819253 
  161000    1180.7065   -10609.316   -10243.185    4176.1276  0.074344327 
  162000    1184.6834   -10610.538   -10243.174    4214.4047    0.0677558 
  163000    1203.1485   -10616.292   -10243.202    4250.8612  0.066951023 
  164000    1222.4465    -10622.26   -10243.185    4288.9001  0.068466733 
  165000    1195.0233   -10613.749   -10243.178    4326.2071  0.072929403 
  166000    1193.8119   -10613.372   -10243.177    4361.9449  0.067882169 
  167000    1165.7596   -10604.653   -10243.157    4397.4105  0.073542699 
  168000    1196.1072   -10614.086   -10243.179     4434.683  0.070018213 
  169000    1210.3421   -10618.491    -10243.17    4470.8372  0.073549439 
  170000    1195.7327   -10613.951    -10243.16    4507.3436   0.07249159 
  171000    1188.3077   -10611.655   -10243.167    4545.8278  0.066083318 
  172000    1197.6655   -10614.548   -10243.158    4581.0509  0.067758414 
  173000    1205.4068   -10616.953   -10243.162    4619.6625  0.066142389 
  174000     1181.021   -10609.412   -10243.183    4657.0173   0.07339827 
  175000    1202.8612    -10616.17   -10243.169    4695.6008  0.066087756 
  176000    1219.1012   -10621.213   -10243.176    4733.7124  0.067190755 
  177000     1190.776   -10612.399   -10243.146    4770.8558   0.06934942 
  178000    1178.0291   -10608.432   -10243.131    4808.1567  0.068796193 
  179000    1184.0671   -10610.315   -10243.142    4845.4361  0.072706659 
  180000    1196.8918   -10614.285   -10243.135    4882.5904  0.070887038 
  181000    1157.4882   -10602.061   -10243.129    4920.5645  0.067182204 
  182000    1197.8703   -10614.597   -10243.143    4956.7808  0.064514832 
  183000    1188.6096   -10611.717   -10243.135     4995.495  0.061862654 
  184000    1200.1396   -10615.293   -10243.136    5033.3174  0.066412418 
  185000    1194.6498   -10613.581   -10243.126    5069.9908  0.073036848 
  186000     1199.993    -10615.24   -10243.128    5107.0737   0.07124676 
  187000    1195.4246   -10613.818   -10243.123    5143.7654  0.073429059 
  188000    1218.2517   -10620.897   -10243.124    5180.0404  0.074008432 
  189000    1194.9536    -10613.65   -10243.101    5214.7933  0.072769536 
  190000    1185.1952   -10610.652   -10243.129    5251.5029  0.068386206 
  191000    1187.3142   -10611.272   -10243.092    5287.8248  0.068688324 
  192000    1221.3504   -10621.847   -10243.112    5325.2559  0.075250915 
  193000    1183.5033   -10610.107   -10243.109    5362.4028  0.073684463 
  194000    1206.2045   -10617.147   -10243.109     5398.527  0.068501479 
  195000    1212.3842    -10619.06   -10243.105    5437.0241  0.060828211 
  196000    1194.0732   -10613.381   -10243.105     5473.399  0.063388568 
  197000    1212.6152   -10619.136    -10243.11    5510.9049  0.066072525 
  198000    1192.8028   -10612.993   -10243.111    5548.1107  0.073198476 
  199000    1189.0619   -10611.833   -10243.111    5585.0952   0.06641944 
  200000    1202.5217       -10616   -10243.104    5622.7463  0.069138192 
  201000    1205.2865   -10616.868   -10243.115    5661.5976  0.064968417 
  202000    1223.8501   -10622.616   -10243.106    5701.1743    0.0694233 
  203000    1199.7886   -10615.146   -10243.097    5738.1886   0.06187268 
  204000     1193.284   -10613.134   -10243.102    5775.8849  0.070226641 
  205000     1185.631   -10610.756   -10243.098    5813.6378  0.068593871 
  206000    1202.2935   -10615.933   -10243.107    5853.9652  0.066488966 
[...]
Neigh   | 121.66     | 121.66     | 121.66     |   0.0 |  0.33
Comm    | 11.3       | 11.3       | 11.3       |   0.0 |  0.03
Output  | 0.0058693  | 0.0058693  | 0.0058693  |   0.0 |  0.00
Modify  | 9.5055     | 9.5055     | 9.5055     |   0.0 |  0.03
Other   |            | 3.584      |            |       |  0.01

Nlocal:        2400.00 ave        2400 max        2400 min
Histogram: 1 0 0 0 0 0 0 0 0 0
Nghost:        4916.00 ave        4916 max        4916 min
Histogram: 1 0 0 0 0 0 0 0 0 0
Neighs:         0.00000 ave           0 max           0 min
Histogram: 1 0 0 0 0 0 0 0 0 0
FullNghs:      245852.0 ave      245852 max      245852 min
Histogram: 1 0 0 0 0 0 0 0 0 0

Total # of neighbors = 245852
Ave neighs/atom = 102.43833
Neighbor list builds = 8896
Dangerous builds = 0
Setting up Verlet run ...
  Unit style    : metal
  Current step  : 250000
  Time step     : 0.001
Per MPI rank memory allocation (min/avg/max) = 4.487 | 4.487 | 4.487 Mbytes
Step Temp E_pair TotEng f_3 v_tdiff f_ave 
  250000    1201.8322   -10615.767   -10243.084            0  0.070131114  0.070131114 
  251000    1184.6419   -10610.425   -10243.073     36.98729  0.071081837  0.070606475 
  252000    1184.6216   -10610.397   -10243.052    75.794506  0.067830212  0.069681054 
  253000    1182.1466   -10609.638    -10243.06    113.04273  0.074205416  0.070812145 
  254000    1180.8856   -10609.242   -10243.055    150.14124  0.069855686  0.070620853 
  255000    1187.5877   -10611.313   -10243.048    187.20272  0.067139306  0.070040595 
  256000    1193.7723   -10613.229   -10243.046    227.81986  0.069128213  0.069910255 
  257000    1186.6279   -10610.994   -10243.027    265.29526   0.07879874  0.071021316 
  258000    1169.2893   -10605.638   -10243.047    301.66036    0.0653748  0.070393925 
  259000    1189.7903   -10611.985   -10243.037    340.38848  0.072307944  0.070585327 
  260000    1191.0169   -10612.389    -10243.06    376.91946  0.068808246  0.070423774 
  261000    1193.5614   -10613.159   -10243.042    412.94764  0.068888299  0.070295818 
  262000    1190.4514     -10612.2   -10243.047    449.58136   0.06667274  0.070017119 
  263000    1202.2258   -10615.854    -10243.05    487.34049  0.067990738  0.069872378 
  264000    1211.0621   -10618.604    -10243.06    525.06245  0.071154614   0.06995786 
  265000    1207.1411   -10617.368    -10243.04    563.28921  0.069999275  0.069960449 
  266000    1192.6367   -10612.872   -10243.041    601.56758   0.06853465  0.069876578 
  267000    1182.1396   -10609.613   -10243.038    638.65053  0.069543146  0.069858054 
  268000     1221.467   -10621.805   -10243.034    675.83243   0.07008218   0.06986985 
  269000    1194.8078   -10613.553   -10243.049    711.12082  0.068097852   0.06978125 
  270000    1210.3313   -10618.341   -10243.023    748.97316  0.067933728  0.069693273 
  271000    1205.5415   -10616.861   -10243.029    785.70786  0.069099398  0.069666279 
  272000    1192.0057   -10612.652   -10243.017    823.09867  0.074975364  0.069897109 
  273000    1181.8765   -10609.503   -10243.009    859.14933  0.071471403  0.069962704 
  274000    1192.2013   -10612.738   -10243.043    896.12788  0.075117024  0.070168877 
  275000    1197.2359   -10614.271   -10243.015    932.88059   0.07477941  0.070346205 
  276000    1195.0309   -10613.577   -10243.004    970.31939  0.069993209  0.070333131 
  277000    1194.0078   -10613.263   -10243.007    1009.3062  0.066972215  0.070213098 
  278000    1204.1897   -10616.423    -10243.01    1047.0965  0.068014686  0.070137291 
  279000      1191.98   -10612.628   -10243.001    1086.1749  0.070582289  0.070152124 
  280000    1211.4624   -10618.666   -10242.997    1124.5966  0.064364526  0.069965428 
  281000    1181.3296   -10609.317   -10242.993    1162.5821  0.060254661  0.069661966 
  282000    1211.6678   -10618.717   -10242.985    1200.7125  0.060925646  0.069397229 
  283000    1168.3954   -10605.319   -10243.006    1238.7641  0.062125409  0.069183352 
  284000    1184.9853   -10610.421   -10242.963    1276.6674  0.071558982  0.069251227 
  285000    1182.4543   -10609.669   -10242.996    1315.9682  0.069912806  0.069269605 
  286000    1193.2094    -10612.98   -10242.972    1353.5921  0.072611916  0.069359937 
  287000    1174.8521   -10607.286    -10242.97    1391.3637   0.06619526  0.069276656 
  288000    1185.5364    -10610.58   -10242.951    1427.5777  0.071638316  0.069337212 
  289000    1176.1288   -10607.677   -10242.965    1466.2747  0.068903093  0.069326359 
  290000    1212.3359   -10618.897   -10242.958    1504.6008  0.063468214  0.069183477 
  291000     1214.147   -10619.476   -10242.975    1544.1612  0.068016756  0.069155698 
  292000    1193.0918   -10612.948   -10242.976     1582.932  0.068074323   0.06913055 
  293000    1210.1937   -10618.249   -10242.974    1621.2174  0.062637343  0.068982977 
  294000    1198.0791   -10614.479    -10242.96    1658.5232  0.065677608  0.068909524 
  295000    1218.7576   -10620.894   -10242.963    1696.2244  0.062853082  0.068777862 
  296000    1166.6598   -10604.712   -10242.936     1735.077  0.068203579  0.068765644 
  297000     1181.968   -10609.468   -10242.945    1771.9225  0.067530939  0.068739921 
  298000    1203.1951   -10616.063   -10242.959    1810.5329   0.06847731  0.068734561 
  299000    1159.2058   -10602.389   -10242.925    1848.3655  0.063957689  0.068639024 
  300000    1223.8518   -10622.447   -10242.937    1885.9782  0.070604097  0.068677555 
  301000    1203.0462   -10615.979   -10242.921    1923.7754   0.06186544  0.068546552 
  302000    1204.9978   -10616.609   -10242.945     1961.834  0.065033118  0.068480261 
  303000    1204.7209   -10616.509   -10242.931    2000.4004  0.066872797  0.068450493 
  304000    1187.5425   -10611.181    -10242.93    2037.6305  0.064947726  0.068386807 
  305000    1189.7361   -10611.864   -10242.933    2073.0892  0.065374325  0.068333012 
  306000    1195.2158   -10613.548   -10242.917    2110.9146   0.06506042  0.068275598 
  307000    1208.0305   -10617.522   -10242.918    2148.1731  0.061702301  0.068162266 
  308000    1217.6722   -10620.519   -10242.924    2185.4405    0.0690527  0.068177358 
  309000     1197.244   -10614.179   -10242.919    2221.5391  0.061168791  0.068060548 
  310000    1170.6566    -10605.92   -10242.905    2261.8363  0.064184325  0.067997004 
  311000    1190.2995   -10611.993   -10242.887    2300.3198  0.058981811  0.067851597 
  312000    1197.2396   -10614.169   -10242.911    2339.5821  0.064779788  0.067802839 
  313000    1213.3166   -10619.142   -10242.898    2379.4069  0.065689464  0.067769817 
  314000    1200.9907   -10615.321     -10242.9    2417.5184  0.063331175   0.06770153 
  315000    1194.2763   -10613.239     -10242.9    2454.6918   0.06369955  0.067640894 
  316000    1217.5481   -10620.468   -10242.912    2493.8565  0.061898347  0.067555185 
  317000    1225.8597   -10623.039   -10242.906     2532.783  0.066400359  0.067538202 
  318000     1165.796   -10604.419   -10242.911    2570.2446  0.068744792  0.067555689 
  319000     1193.974   -10613.159   -10242.914    2610.0123  0.066561197  0.067541482 
  320000    1187.2328    -10611.05   -10242.895    2648.3597  0.071610869  0.067598797 
  321000    1213.1971   -10619.104   -10242.898    2683.3652  0.071406961  0.067651688 
  322000    1214.5604   -10619.524   -10242.895    2719.8411   0.07544617  0.067758462 
  323000    1186.5841   -10610.853   -10242.899    2758.9816  0.066927746  0.067747236 
  324000    1218.2838   -10620.679   -10242.895    2797.8899  0.064156571   0.06769936 
  325000    1177.8181   -10608.128   -10242.892    2837.1776  0.065053454  0.067664546 
  326000    1177.9134   -10608.145   -10242.879    2872.3972  0.067779199  0.067666035 
  327000    1192.1061   -10612.565   -10242.899    2910.8593    0.0696071   0.06769092 
  328000     1218.703   -10620.814   -10242.901    2949.5941   0.06997319   0.06771981 
  329000    1211.0623   -10618.453   -10242.909     2986.549    0.0673891  0.067715676 
  330000    1182.3246    -10609.53   -10242.897    3022.2638  0.067044569  0.067707391 
  331000    1194.9046   -10613.427   -10242.893    3060.2641   0.06655781  0.067693371 
  332000    1179.5563    -10608.64   -10242.865    3097.2287  0.073130655  0.067758881 
  333000    1189.5881   -10611.783   -10242.898    3133.6367  0.066997772   0.06774982 
  334000    1194.7065   -10613.361   -10242.889    3169.0525  0.067185783  0.067743184 
  335000    1200.9943   -10615.299   -10242.876    3207.7387  0.069459445  0.067763141 
  336000    1194.0753   -10613.151   -10242.874    3244.3597  0.068239459  0.067768616 
  337000    1168.0101   -10605.061   -10242.866    3280.7122  0.070391985  0.067798427 
  338000    1186.9747   -10610.948   -10242.873    3318.8711  0.065530694  0.067772947 
  339000    1194.9032   -10613.409   -10242.876    3358.0347  0.064593719  0.067737622 
  340000    1187.6467   -10611.154   -10242.871    3395.7196  0.066085267  0.067719464 
  341000    1191.4369   -10612.311   -10242.852    3433.2924  0.068047228  0.067723027 
  342000    1222.5832   -10621.984   -10242.867    3470.0935  0.070247503  0.067750172 
  343000    1205.5179   -10616.687   -10242.861    3506.5395  0.070193176  0.067776161 
  344000    1173.7638   -10606.843   -10242.864    3543.9475  0.069082957  0.067789917 
  345000     1187.893   -10611.211   -10242.851    3581.4524  0.073157503  0.067845829 
  346000    1178.2946   -10608.243    -10242.86    3619.7423  0.066533021  0.067832295 
  347000    1204.5406   -10616.386   -10242.864    3658.4792  0.070024421  0.067854664 
  348000    1205.1706   -10616.541   -10242.824    3695.2732  0.074653158  0.067923335 
  349000    1187.9282   -10611.227   -10242.856    3733.0462  0.069600279  0.067940105 
  350000    1186.4492   -10610.768   -10242.856    3769.4473  0.072927624  0.067989486 
  351000    1191.8042    -10612.41   -10242.838     3807.123   0.06544195   0.06796451 
  352000    1181.4088   -10609.202   -10242.853    3843.0553  0.062237011  0.067908904 
  353000     1192.723   -10612.698   -10242.841     3882.691  0.061519474  0.067847467 
  354000    1214.8908   -10619.567   -10242.836    3919.8736  0.070875316  0.067876303 
  355000    1146.5872   -10598.382   -10242.831    3955.4998  0.071811506  0.067913428 
  356000    1195.7863   -10613.647    -10242.84    3993.0181  0.066702799  0.067902114 
  357000    1225.3252   -10622.814   -10242.847    4029.0913  0.061199146  0.067840049 
  358000     1199.476    -10614.78   -10242.829     4066.533  0.065164578  0.067815504 
  359000    1222.0216    -10621.79   -10242.847    4103.8852  0.064632193  0.067786564 
  360000    1211.4429     -10618.5   -10242.838    4140.0066  0.072743112  0.067831218 
  361000    1181.1196   -10609.092   -10242.832    4178.4867  0.064715422  0.067803398 
  362000    1182.2708   -10609.445   -10242.829    4216.8666  0.067029309  0.067796548 
  363000     1208.656   -10617.645   -10242.846    4256.2359  0.061782343  0.067743792 
  364000    1205.8325   -10616.781   -10242.859    4294.1221  0.072375771   0.06778407 
  365000    1186.8488   -10610.854   -10242.818    4332.4808  0.068006305  0.067785986 
  366000    1224.5446   -10622.557   -10242.831    4368.6578  0.067227518  0.067781212 
  367000    1202.8007   -10615.822    -10242.84    4405.2943  0.074569589  0.067838741 
  368000    1210.5928   -10618.236   -10242.837    4441.5392  0.072768337  0.067880166 
  369000    1170.1429   -10605.691   -10242.836    4478.4191  0.073181074   0.06792434 
  370000    1187.2951   -10611.003   -10242.829    4515.8831  0.079248767  0.068017931 
  371000    1184.6102   -10610.173   -10242.831    4552.4269  0.069672977  0.068031497 
  372000    1181.7323   -10609.281   -10242.832    4591.4522  0.067222733  0.068024921 
  373000    1207.2869   -10617.208   -10242.834    4630.4224  0.066743171  0.068014585 
  374000    1203.3802   -10615.995   -10242.833    4669.8793  0.067094742  0.068007226 
  375000    1200.3931   -10615.036     -10242.8    4706.9063  0.070900307  0.068030187 
  376000    1183.0407    -10609.66   -10242.805    4744.3194  0.068255803  0.068031963 
  377000     1199.985    -10614.92    -10242.81    4780.0805   0.06575583  0.068014181 
  378000    1199.2701   -10614.729   -10242.842    4818.1819  0.073464977  0.068056435 
  379000    1218.6255   -10620.718   -10242.828    4858.8967  0.063880208  0.068024311 
  380000    1215.2623   -10619.663   -10242.816    4896.8672  0.062594846  0.067982864 
  381000    1187.2918   -10610.951   -10242.778    4934.9843  0.070675558  0.068003263 
  382000    1199.0561    -10614.64   -10242.818    4974.5678   0.07351692   0.06804472 
  383000    1198.6917     -10614.5   -10242.792    5011.4302  0.073979944  0.068089012 
  384000     1221.916   -10621.723   -10242.812    5048.6714  0.071362673  0.068113262 
  385000    1201.4109   -10615.346   -10242.794    5084.9743  0.074072833  0.068157082 
  386000    1200.0152   -10614.936   -10242.817    5122.5632  0.069139684  0.068164254 
  387000    1203.6724    -10616.08   -10242.827     5159.202  0.076216117  0.068222601 
  388000     1208.573   -10617.578   -10242.806    5195.8753  0.065435298  0.068202549 
  389000    1183.7653    -10609.87    -10242.79    5234.8932  0.061852565  0.068157191 
  390000     1202.284   -10615.628   -10242.806    5273.8859  0.073537417  0.068195349 
  391000     1192.793   -10612.697   -10242.818    5311.0098    0.0755562  0.068247186 
  392000      1204.08   -10616.179   -10242.799    5349.9981  0.072009973  0.068273499 
  393000    1198.8939   -10614.583   -10242.812    5386.9631  0.074409078  0.068316107 
  394000    1181.8429   -10609.283     -10242.8    5426.0582  0.074091764   0.06835594 
  395000    1222.7899   -10621.984   -10242.803    5462.2271  0.071447058  0.068377112 
  396000    1190.1666   -10611.843   -10242.778    5500.6445   0.07100648  0.068394999 
  397000    1209.3809   -10617.842   -10242.819    5536.6155  0.076294496  0.068448373 
  398000      1208.82   -10617.649     -10242.8    5573.3513  0.072640391  0.068476508 
  399000    1198.0932   -10614.337   -10242.814    5611.2592  0.076709084  0.068531392 
  400000    1206.4411   -10616.923   -10242.811     5649.168  0.068937341   0.06853408 
  401000    1199.9079   -10614.886     -10242.8    5686.7903  0.073317605  0.068565551 
  402000     1221.023   -10621.447   -10242.814    5724.9202  0.064294721  0.068537637 
  403000    1214.1601   -10619.316   -10242.811    5761.9077  0.066949694  0.068527325 
  404000    1185.0107   -10610.282   -10242.816    5799.5858  0.070630559  0.068540895 
  405000    1189.9018   -10611.803    -10242.82    5835.3393  0.071310673   0.06855865 
  406000    1196.5095   -10613.847   -10242.815    5874.1014  0.068169232  0.068556169 
  407000    1197.8355   -10614.254   -10242.811    5910.4981   0.07474432  0.068595335 
  408000    1206.8052    -10617.03   -10242.806    5948.8113  0.070701831  0.068608583 
  409000    1217.5183    -10620.37   -10242.824    5986.1993  0.067004789  0.068598559 
  410000    1207.0063   -10617.096   -10242.809     6021.897  0.074469695  0.068635026 
  411000    1171.7376   -10606.141   -10242.791    6059.3379  0.074482427  0.068671121 
  412000    1183.1001   -10609.662   -10242.789    6096.4156   0.07697468  0.068722063 
  413000    1189.8607   -10611.749   -10242.779    6132.4586  0.072523738  0.068745244 
  414000    1189.4721   -10611.622   -10242.773    6168.5791  0.075589208  0.068786723 
  415000    1182.0359   -10609.318   -10242.775    6204.8021  0.072786879   0.06881082 
  416000    1213.9638   -10619.236   -10242.792    6239.5865  0.067859559  0.068805124 
  417000    1201.0627   -10615.205   -10242.761    6275.8822  0.060788141  0.068757404 
  418000    1209.3967   -10617.786   -10242.758    6313.3346  0.065652117  0.068739029 
  419000    1199.0041   -10614.573   -10242.768     6352.319  0.067444417  0.068731414 
  420000    1193.9982   -10613.028   -10242.775    6391.6095  0.068887217  0.068732325 
  421000     1201.107   -10615.225   -10242.767    6428.2136  0.066743728  0.068720763 
  422000    1231.2736   -10624.588   -10242.776    6463.4184  0.067960206  0.068716367 
  423000    1185.0671   -10610.251   -10242.767     6499.985  0.064001893  0.068689273 
  424000    1211.7064   -10618.511   -10242.767    6537.5284  0.070903591  0.068701926 
  425000    1213.9686   -10619.212   -10242.766     6575.152  0.070761464  0.068713628 
  426000    1191.0703   -10612.109   -10242.764    6613.1186  0.065911408  0.068697796 
  427000    1190.5969   -10611.967   -10242.769    6652.5174  0.069553154  0.068702601 
  428000     1197.788   -10614.194   -10242.766    6687.3631  0.066563444  0.068690651 
  429000    1229.3978   -10623.996   -10242.766    6726.1563  0.066458542   0.06867825 
  430000    1179.8659   -10608.618   -10242.748    6763.9574  0.071646267  0.068694648 
  431000    1203.8393   -10616.065   -10242.761    6800.8159  0.071313058  0.068709035 
  432000    1206.2178   -10616.813   -10242.771    6839.6476  0.076587249  0.068752085 
  433000    1175.6622    -10607.34   -10242.773    6877.3253   0.06732198  0.068744313 
  434000     1188.983   -10611.488   -10242.791    6914.6745  0.070511389  0.068753865 
  435000    1226.3151   -10623.077   -10242.803    6952.8865  0.075106044  0.068788016 
  436000    1214.7378   -10619.459   -10242.775      6989.27  0.066478283  0.068775665 
  437000    1192.3946   -10612.526   -10242.771      7026.41  0.062694285  0.068743317 
  438000    1207.9495   -10617.358   -10242.779    7065.5329  0.062257961  0.068709003 
  439000    1236.5687   -10626.256   -10242.802    7104.7062  0.071071908  0.068721439 
  440000     1179.326   -10608.479   -10242.775    7140.4138  0.072293059  0.068740139 
  441000    1204.2435    -10616.22    -10242.79    7178.0708  0.066791948  0.068729992 
  442000    1218.2507   -10620.544    -10242.77     7216.409  0.066137057  0.068716557 
  443000    1185.3499   -10610.345   -10242.774     7256.309   0.07186742  0.068732799 
  444000    1212.0845   -10618.637   -10242.775    7294.0598  0.070383338  0.068741263 
  445000     1222.623   -10621.904   -10242.775    7330.0844  0.065193085   0.06872316 
  446000     1181.801   -10609.229   -10242.758    7367.2474  0.071012892  0.068734783 
  447000      1164.13    -10603.76   -10242.769    7405.6723  0.064444733  0.068713116 
  448000    1178.1546   -10608.102   -10242.762    7443.7867  0.063650829  0.068687677 
  449000    1189.7595   -10611.703   -10242.765     7481.031  0.062197984  0.068655229 
  450000    1167.8896   -10604.938   -10242.781    7521.8009  0.064939378  0.068636742 
Loop time of 37414.1 on 1 procs for 200000 steps with 2400 atoms

Performance: 0.462 ns/day, 51.964 hours/ns, 5.346 timesteps/s
98.3% CPU use with 1 MPI tasks x 1 OpenMP threads

MPI task timing breakdown:
Section |  min time  |  avg time  |  max time  |%varavg| %total
---------------------------------------------------------------
Pair    | 37267      | 37267      | 37267      |   0.0 | 99.61
Neigh   | 122.24     | 122.24     | 122.24     |   0.0 |  0.33
Comm    | 11.246     | 11.246     | 11.246     |   0.0 |  0.03
Output  | 0.0052577  | 0.0052577  | 0.0052577  |   0.0 |  0.00
Modify  | 9.6531     | 9.6531     | 9.6531     |   0.0 |  0.03
Other   |            | 3.562      |            |       |  0.01

Nlocal:        2400.00 ave        2400 max        2400 min
Histogram: 1 0 0 0 0 0 0 0 0 0
Nghost:        4914.00 ave        4914 max        4914 min
Histogram: 1 0 0 0 0 0 0 0 0 0
Neighs:         0.00000 ave           0 max           0 min
Histogram: 1 0 0 0 0 0 0 0 0 0
FullNghs:      245672.0 ave      245672 max      245672 min
Histogram: 1 0 0 0 0 0 0 0 0 0

Total # of neighbors = 245672
Ave neighs/atom = 102.36333
Neighbor list builds = 8883
Dangerous builds = 0
Running average thermal conductivity: 8.18
System init for write_data ...
Total wall time: 23:25:12
