LAMMPS data file via write_data, version 29 Sep 2021, timestep = 450000

2400 atoms
3 atom types

0 22.332581603768304 xlo xhi
0 33.498872405652456 ylo yhi
0 44.66516320753661 zlo zhi

Masses

1 18.998403163
2 6.938
3 22.989769

Atoms # atomic

929 1 4.009320146093531 0.6359920920157296 1.5835826923884417 -1 0 1
1559 2 3.357720921467751 32.37642440108275 1.6351099584614408 -1 -2 0
2136 1 1.2959389886820611 0.26868129902692056 43.70551533636056 2 -1 1
1655 2 3.7263430669018156 1.0425981640067445 3.3055889561680134 0 1 1
2112 1 22.30871345758927 2.8643796865869793 4.748299476453168 0 0 1
921 1 6.455522085198299 2.361530822970766 1.7123723004348645 4 0 0
387 3 5.745652818467052 2.6907831458197835 44.48564420905648 -1 0 0
958 2 5.836043150412773 2.0872294711550765 3.6746562264560203 2 0 0
2211 1 4.237419028177554 2.8684756408769565 3.3562159629526733 -2 -1 2
536 1 5.62206580757455 0.29909463657813723 3.9470151629642034 0 1 1
1345 1 7.895298344040451 33.37165358718533 1.9824138492560455 -1 -1 1
2216 1 9.341467418119992 3.05686613096924 1.8681365926565152 -2 1 1
69 2 7.65078199830536 3.8025621662647118 2.0436656758140272 1 2 -1
2190 3 13.04956622601854 1.0299848874073898 2.245035147299622 -2 0 1
1169 2 9.302950433186021 1.7484435021647526 2.9938291188142734 0 3 0
1231 1 11.037639513593824 0.2947442240909242 3.2576803677374815 -3 0 1
1081 3 15.711605650072341 31.102232890843233 1.1669044386222476 0 1 0
979 3 14.666608768281092 3.103647886815354 1.8619152752230639 2 -1 1
1721 1 14.024766783310861 1.2336102138211513 3.935322440311631 -1 0 1
1496 3 17.71296918780433 3.925695843918164 1.8136388248054978 1 1 2
1269 2 15.903925109877557 1.9830647313685759 3.8251404642677884 0 -2 1
947 1 16.544034314578898 2.1825800095697225 2.094034221830745 -1 2 0
1374 2 17.683528158777868 0.05847530842668402 1.4797464077491969 0 0 0
747 1 21.05132729199012 32.95740271565029 0.7786683764251728 -1 0 1
1654 2 1.8334043377264704 8.251127542402228 0.33092196476386343 -2 1 0
837 1 0.5284826062307677 2.5318826802452583 1.8178478773949334 0 2 -1
2277 3 2.689908783682882 5.107837661532746 3.0733260211485294 -2 1 0
904 1 3.8907724693019596 7.081522673264198 4.697969117883533 0 1 1
870 2 22.149945691099 3.473021400527681 3.006018725407905 2 0 1
1049 1 3.070581783655321 6.886323135993637 1.1320820188760972 2 1 0
365 2 5.124579530420219 3.785300516490005 2.2097493443112133 -2 -1 1
2074 2 5.736252987717161 6.830310835160642 4.028024596126395 -1 -1 2
632 1 5.30768262388087 5.4758429816805565 2.7080311757745945 -1 0 0
1361 2 8.042389234834628 7.830534727135859 2.5549441178775805 1 -1 0
367 2 12.96431933241704 3.4229245448376333 4.1492975993358785 0 -1 1
46 1 12.590899403720957 5.460405471454604 4.174486182481262 -2 2 2
1792 3 10.689046292438602 4.1126564232941005 3.131074298981875 1 0 1
1002 1 8.975132560416645 6.2963488195845905 3.142856268304382 1 1 1
1936 1 12.395663090926105 3.1714316910751155 2.2969294124098294 0 0 2
2315 1 15.179175723488854 7.660319435029608 3.8903859729905457 0 -1 1
2304 1 14.953631870842734 5.306121415781939 0.7960238869264533 2 2 2
1729 1 18.062683817245723 6.2575763215647635 2.3182805661376373 0 1 0
1309 1 15.609682889111397 3.8024071432851225 4.013623321912688 0 -1 1
881 3 16.057081740780664 7.034828225018903 1.7706261661134484 -1 1 0
741 1 0.37232451631070557 5.378846605581392 2.8319303412095493 2 1 1
1207 1 20.093713601713528 3.565866891964024 1.883649878743709 -2 0 1
1453 2 19.47453862284401 4.2830187674920674 44.47952964306504 -2 0 0
1636 1 20.71512666175514 7.16417524461404 1.242692003465214 -1 0 1
868 2 21.844243295038492 6.652206410956177 4.674923030377864 -2 1 -1
478 3 20.087047576824318 5.528802747536838 2.8345003042739787 -1 2 0
1790 3 1.9001139199497696 7.896240387124839 4.029635529089633 -1 2 0
1667 2 3.4108821589451295 11.565689509899045 3.706995089089712 1 4 0
1106 1 0.4826985148152362 9.46554777108836 0.38721357468650125 -4 2 0
897 3 2.6990847283047263 10.886448060374855 1.0371052634167386 0 0 2
1610 1 4.086248533013459 9.578136212224482 1.3249002976296143 -3 1 1
1358 2 5.39771998848105 9.77392250573513 2.438523604313372 0 2 0
414 1 6.338695429440055 8.538495762823349 3.2261381821049833 0 2 0
400 3 8.46379979278457 10.602740212793519 3.0866287328392663 -1 1 -1
1833 1 9.66125663800903 8.864637167815978 3.642499762248863 -2 -1 1
1886 3 10.785597532337935 8.848326974712437 1.3551006326818622 1 0 0
425 1 12.158746809301093 8.066449140095052 2.756057326094691 1 0 -1
20 1 11.21493566914525 11.353343024818145 2.124627979863415 1 0 -1
1082 3 13.111130432174235 10.034234838297591 1.7871171595385267 1 0 0
1025 1 15.529208643494625 9.575294416497977 1.312483393193692 -2 -1 2
396 3 18.903761886712058 8.494280442792842 0.3575643554273339 2 0 1
2222 1 17.780656559099526 11.723563529802206 2.0094303023123423 1 0 2
1706 1 19.16933706473801 10.94133937194841 44.66169482614865 -1 2 -1
461 2 21.519436408014453 8.241123572026892 2.148547710654212 2 0 1
1044 1 1.60675130667528 11.227888670899118 2.756512670985332 1 0 1
1385 3 1.7491718507637612 13.278654422307564 2.8506277735530268 1 -1 1
2349 1 22.193663214505168 14.463894859008667 3.118707127214964 -2 0 1
719 1 3.7460664066071594 12.555568858487288 1.7603504785624386 -2 0 0
1424 1 6.465216292038086 11.157351447116843 1.6836796721645295 0 -2 1
265 2 5.666964966858166 12.20395577043304 2.7685761199991266 1 0 0
2290 3 4.979668190823286 11.651002138142973 44.400907680460655 0 1 1
1568 2 7.8281507487899145 11.638597519423032 0.41668109257142155 1 -2 0
405 1 5.953335585887335 14.419634872044677 1.7648856242342172 0 0 0
479 3 7.632663408856312 14.639757149728437 3.5039566168776664 -2 -1 0
705 1 8.507609704910392 12.561800520244438 2.2551034273113446 2 0 1
661 2 10.393577356714118 13.337503280852781 2.210996609695122 0 1 0
2352 2 12.829059979746898 12.377650121572762 1.9808393722944662 -1 1 2
1019 1 13.506340079488739 12.32507102001317 0.3099210156558267 -1 0 0
1341 1 12.87329848390042 14.041125049575559 2.9157216055307393 1 0 0
655 2 15.743836784607096 11.791489055088476 1.771059484776845 -3 -1 2
1584 3 16.27344870395779 14.173708344822307 2.9596245137968067 0 -2 1
1325 1 15.857864010630914 13.532523552094577 0.937132919178537 1 -1 1
577 3 22.31753631958408 11.299533233004908 0.5921252788512904 -2 0 0
1911 1 18.78236787210272 14.96514361164846 1.202199336725674 -1 -1 0
1688 3 2.5354245085419613 17.5459906883429 0.21448104952734123 -2 0 1
614 1 2.117321982870848 14.675370149263676 1.2232148419607984 0 -1 0
792 3 1.4358955829385536 15.903746436694192 2.620130616514047 0 0 0
350 1 1.981770114780161 18.600026225519063 4.360655714939463 2 0 -1
670 2 2.442702936438521 16.72374435206592 5.145142106942258 -1 -1 0
2196 3 5.79815696618959 16.992006365855108 1.7108272102323772 2 0 0
967 2 4.144107326385864 14.922251281014628 1.2193224744071642 0 -3 1
1520 1 3.7020212677891013 16.373696003782033 3.3336406442285664 2 -1 0
2306 1 4.751162187956282 16.250307006429388 44.65698641808811 0 0 0
1993 3 6.341008698171682 17.496413793465926 43.22695369997694 -2 -2 1
1544 1 10.967100441185265 14.831054388338357 1.2741671002806736 0 2 -1
1291 3 11.218989155636699 16.958942040506614 0.6189409884219071 -2 -2 1
1423 1 7.998652380489053 17.01894633352199 0.9106140627884818 -2 1 1
1989 3 13.08655543849231 14.467735735090095 0.24580210234240465 1 0 0
1399 3 12.765659243789282 16.184549001987385 3.0270467554289557 -4 -2 1
223 1 13.532007062056909 16.91783163901016 0.5759663910493992 0 0 0
2183 3 15.914561416510473 15.65106106625559 0.3833517533982565 -2 0 1
2151 2 18.445420165381442 16.6356671177193 1.607006515132886 -3 -1 1
1926 1 16.77069438031219 17.46958955362407 0.6236922383937897 1 -1 1
338 1 15.307135791499766 16.280845726563914 2.962194939764826 -1 -1 0
162 2 18.987046725183514 18.50285271148307 3.1669121584177073 -2 -1 -2
1845 1 21.01397961568729 16.75993858783635 44.487361464588055 -1 0 1
440 1 1.4901063761905389 18.78591878304514 1.425405394432262 1 0 1
1387 3 20.62347713503243 14.221420862987424 1.3024131100362581 1 1 1
129 1 18.47346330627277 17.04242399376067 3.573866665957353 1 1 0
275 2 21.06504755602421 18.326760165485606 0.9696551582846018 -4 0 -1
1515 1 0.09828867819991836 21.465792396360666 1.1026281321155844 0 0 0
1573 2 3.3034575744272665 18.655688503527905 3.1173698239928695 -2 -1 0
1170 2 1.6074541683950465 21.60968851159137 1.823249521418725 1 0 1
1447 1 3.3767316054044954 21.835299075550573 3.305767789169133 -1 -1 1
435 1 3.925901777924222 19.33962999197187 1.5943023986565465 -2 0 0
1205 1 6.001842445556709 21.66575623500157 2.4188868155921304 0 1 0
1924 1 6.398945140947828 18.802176172633406 3.047683464395875 2 0 0
2358 2 6.499387991381891 19.85129948333516 1.3478988863397423 -2 -1 1
300 3 7.751640943288922 20.970280850878968 3.747954796310038 1 2 0
282 3 8.57296247494157 18.085254607276582 3.0753394873525868 -1 0 0
1598 3 9.054180956133708 18.399815317082815 44.51280890401442 -1 -1 -1
1765 2 9.54789733389728 21.718446384610942 1.5722698741324939 1 -1 1
1813 1 8.98084773542005 19.69707404061402 1.647990404765422 -2 0 1
1315 1 11.456901728845363 19.0945583269813 0.3053602437035872 -1 -1 1
1569 2 12.653657290977286 20.25688083356813 0.37323299281815764 -2 -1 1
1435 1 13.13540252942873 19.241812135380325 2.7488432085030396 2 0 0
1137 1 11.853049144834007 21.88218278393845 1.0378972184959945 2 0 0
1944 1 14.595570898127399 20.244033769923345 44.14970171208245 -2 -2 2
1481 3 14.879029906151478 18.284947132418875 1.6871057402935639 -4 -1 1
326 1 16.218119116948152 19.06059688495671 3.108842573315719 -1 0 -1
134 1 17.83602758870634 20.87327148703914 0.42021599720760094 2 0 -1
2215 1 19.331690815154015 18.340254298679994 1.3913757401582323 -3 -1 0
2374 2 0.6920121146816786 19.264523779668902 3.1214650884025037 -2 -1 1
895 3 21.473675840383404 22.90394119000269 2.440341992656744 1 1 0
609 1 0.7215354644399459 21.010649172916253 3.537929865297197 1 -1 0
2043 1 1.62424113561211 23.55988023294097 2.0622056509298865 0 0 1
126 1 0.5998669904447215 24.848614384213235 4.426921862310152 0 0 -1
1274 2 0.45069789572166724 24.616946780599324 1.1406797630469254 0 2 0
914 1 4.675219312512475 24.49793862908315 4.151068935917504 0 -1 0
1178 3 2.448747691737969 23.82330217957391 4.1815126086562495 2 1 1
2181 3 6.548580681971823 23.824626809143602 1.848026279737141 0 -1 1
2247 1 8.816164935325556 23.156242870506194 1.5034848923823276 2 0 1
1895 3 6.002791351216393 26.874215994837314 4.1134765322548414 -1 2 0
2057 2 8.218032408836388 23.075993377229295 44.45769419229095 1 1 0
802 1 9.066866681730463 21.42693873288525 44.246466134240926 -1 -1 0
1391 3 9.318028692325665 25.39993350100392 1.2765547103661474 0 1 -1
943 1 11.043586325338014 24.923902414805454 3.57553538439611 0 -1 1
1287 3 8.8799656168327 24.520445643278507 3.917061496052913 -1 -2 1
894 3 13.203323635382795 23.288216402725897 0.0269912579273069 -1 -1 1
1720 1 14.631063233864072 26.02293368201417 0.47033382401665935 2 2 1
444 1 15.165243572164046 21.541015807562925 2.9728625531288086 0 2 -1
1960 2 17.02375018144035 20.528721994747784 2.23504401478174 -2 0 1
1576 3 15.963771236537351 23.618167983480873 2.1659478805901053 1 1 -1
2263 2 16.37232679029666 21.230381850628824 44.09540954683677 0 2 -1
877 3 18.852081844535704 23.542674574382836 1.1006087656985268 -1 0 -1
1412 1 21.143702441116293 24.44075530653499 0.6553767470195769 -3 -3 1
1266 2 2.7491617098033947 24.77548942722796 1.0269349131290568 4 -1 1
1643 1 1.62472686360357 26.17457331748564 0.40582564311096986 3 3 1
1737 1 21.928915104472953 27.594626593619534 2.5081183185833664 3 0 0
2395 3 3.597896500516198 27.036753623154507 2.706675397226172 2 -1 4
1709 1 5.609478924305381 28.155035162408293 2.3295742525676926 1 1 1
2189 3 4.933449974226729 29.770412112938644 0.8961015221791265 0 0 1
2031 1 2.477357746396779 28.60210025590432 2.129687234529325 1 -1 1
1126 1 7.690107973373086 25.73930740006487 2.6656904250950975 0 1 0
1986 3 6.346684940209302 26.578816038842856 0.9362507171699238 2 0 2
1780 3 10.797153023253927 28.59467462992989 3.1595344346058067 0 -1 1
1829 1 9.16681815425644 28.535079117291687 1.7470310991565783 0 2 2
570 2 12.550515169880375 25.522492530633873 2.5093321420195345 0 0 0
610 1 10.838556179006787 26.953117398829136 1.9814842104197334 -3 -2 1
1047 1 12.188249309237413 27.34629041870038 44.066795252625646 1 -1 -2
2276 3 14.009425616310104 27.93649717760264 1.479692586241141 -1 0 2
1915 1 13.626060572386551 26.63944046197809 3.447025481056424 -1 -3 0
1902 1 17.472996647991764 25.01462494806844 0.9713359477689032 0 1 2
1903 1 15.592998426143172 28.517002613251 2.5808953675972317 -3 -1 0
283 3 17.1482762466503 29.46706120098254 3.8722115667778576 -2 -1 1
1110 1 17.630100111987563 29.312436675055885 43.88459618562396 0 0 0
991 3 20.149365172116553 26.948003194590637 1.2962820475219652 2 -1 0
1838 1 19.580325477871696 24.90994630772615 3.0913735732547774 0 -1 0
1922 1 18.513312053764036 28.819870911833625 2.1778805437460425 1 -1 1
276 3 6.033673773542897 0.40815841965066396 1.4930754607557555 -1 2 0
1187 3 0.8671906352074509 29.908024502207507 2.4402066648706278 -1 0 1
1747 1 1.493825087161216 32.45172997843703 1.9107028961501449 3 0 1
1116 1 4.175591592270293 31.32252055206355 2.9607677193183326 2 -1 -1
1524 1 1.035579485473658 30.425003892466822 0.13647132204956658 -2 -1 1
969 2 7.420265901512912 29.303742658206676 1.7150076765912639 2 1 0
298 3 6.095453109086577 31.53618656778284 4.127931575590867 3 -1 -1
450 1 7.799046394222075 30.413356068535972 3.023806436054456 -3 -1 -1
256 2 8.214090563789668 32.2551088049453 0.513492962451233 1 1 0
2279 3 9.668924055893337 31.603934818348915 2.5345410672195965 -2 -1 2
527 1 13.872872656690994 32.80189652961726 1.104990389839614 0 0 -1
82 3 12.49183332722449 31.08179954797956 0.7438591579220064 1 -2 0
1501 1 11.762884468769464 30.29828890437737 2.585838814746924 3 -1 1
1785 3 15.101927177062004 33.129630152636494 4.457685589252788 3 0 1
666 2 17.54193177705114 32.16141776355022 4.715825985280842 2 1 0
2253 2 18.36640843613858 29.96490429093817 0.6687729661929686 0 -1 -1
2040 1 16.153082947195244 31.435029200485793 3.5905970995315215 1 1 1
430 1 19.379754868527026 32.72950956172595 3.868817761135833 -1 -1 0
113 1 18.26792389247714 31.746908776067105 0.783514428744199 -1 -4 1
1053 2 0.4979662821578622 32.474800801407724 0.4211900466609857 2 0 1
1880 3 20.128455577110245 31.664302804791042 1.96985421822261 -1 -1 1
716 1 20.394760481120823 29.93199785779576 44.652519827946406 0 -1 -1
1099 3 3.2385183851301838 2.199463288486335 6.606453422203723 1 2 0
1456 2 1.0004603475877847 1.406326894529015 4.1703010531988385 0 1 0
1012 1 1.3499767473230369 1.793634689401438 7.709058784898387 1 2 0
637 1 2.738884043507919 0.8852109797179806 4.904917343647229 -1 -1 1
408 1 7.179598615598172 3.557486022101394 3.8320620731363286 0 -1 0
756 2 4.580014993820802 33.35064828561341 5.6146809632770225 2 -1 0
1307 1 5.214860242236939 2.2097710861851216 6.124002154749278 3 0 0
2362 2 8.728115140740742 5.425629953665705 8.947622583753056 2 1 1
2128 1 8.406522231132422 1.9937005936117642 5.831742313982261 1 -1 1
317 1 9.84002371179491 4.7933523758839005 5.165506018563009 0 0 0
2153 2 9.400260876085524 3.304874298294351 6.475497758157165 0 3 0
2360 2 9.660240945946622 33.209407828245645 6.634421175369136 2 -1 0
862 2 11.789854457354624 32.79000138725137 4.3717055539023635 1 1 0
2278 3 13.264141085331078 1.1722269520347521 6.382835840715464 -1 1 1
53 2 16.52366511754791 0.8712191878191018 6.555698715787446 4 0 -1
215 1 13.017569441757367 32.279042152597356 4.996750160291775 0 -1 0
2254 2 17.187006035732313 3.8115039259248142 5.517824839580378 1 0 0
706 1 16.83788575035011 0.6074093784575393 4.592920939083616 1 -1 0
723 1 15.108849673149091 2.068518718176819 6.789294969537841 -2 0 0
2295 3 19.325637595111612 1.2924084508718834 4.909062098804834 1 1 2
210 1 18.829104403921534 4.374401343405489 4.7085114279751075 -3 1 1
1136 1 22.278072586579516 0.19591181353846565 4.902639022964862 -1 1 0
2079 3 1.5873240616300588 0.14844870315771994 6.672623779850218 2 0 2
1057 2 3.518584278030442 4.8312285523106695 9.183268088434467 1 0 0
419 1 3.0613072895705136 4.294280850113242 5.879815794433916 -1 3 0
2365 2 2.0190578760337803 9.095963630765512 7.078525292069519 -2 2 0
1760 2 3.235134471860275 5.999721998979545 6.471979377614623 -1 1 0
2309 1 2.941316049671046 6.224722095760259 7.987465231433011 2 1 1
1735 1 0.7029467605125558 7.2827176076619 5.966404744124022 -1 2 0
1541 1 0.9429284289374793 4.322508258488842 9.099459346546032 4 0 -1
2184 3 4.9040672014589175 4.113665039593315 4.983929334381036 -2 1 1
2331 1 6.54906885716552 6.215397978057941 5.469038976913144 1 1 0
1673 2 8.229352814630387 8.580047100845652 5.198326984232565 -1 -1 1
2148 1 7.168592396207009 4.820419033526497 8.023590129288408 0 -2 0
1768 2 8.245502684815344 4.924093806205214 4.628808730142895 0 0 1
385 3 11.418295083089529 5.879390374470086 6.462387530111148 1 1 0
923 1 9.678134434998979 7.801396640530153 6.109844254791329 1 -1 1
434 1 10.333537597472445 4.276828383498351 7.922719261053457 1 -1 0
1551 2 9.440857639410991 9.27195297596508 10.609753776810512 1 -1 0
787 3 14.527280706642607 5.417005254299156 4.5079567424758595 0 -1 0
847 1 12.624406592504005 3.128757219076515 5.971486350540515 0 -1 0
252 2 13.939556774191393 8.72674346121604 6.346026936450214 1 -2 0
1102 1 13.260323627196758 6.932364855424573 6.219491353141202 3 0 0
2314 1 12.696214172377566 9.64165790249897 5.035835190221962 -3 0 1
794 3 17.820823388733345 7.075251963021972 4.526359519631565 -1 0 -1
1509 1 16.18951660374274 5.116010129105582 6.012878695803086 0 1 0
772 2 13.91051474636977 3.635604338580731 6.671461768746773 2 -1 1
1746 1 20.189008981598185 6.9515863774270725 5.133314341336181 -2 -1 1
264 2 0.1617114357527285 6.356723130252056 8.685150159691547 1 1 -1
412 1 21.267281465276117 5.537210825735691 7.751320009054935 1 2 0
1837 1 2.9484769611924437 9.64481673911969 5.069231533756021 -1 0 1
587 3 0.1704759350442406 10.272562873239973 4.14241244548482 1 3 -2
1526 1 2.9961149674572707 9.696212823824123 8.282929299013341 4 -1 0
778 3 5.036950860551665 8.890021175080753 5.430758846473447 2 -2 1
989 3 6.973424920787614 11.472157074428015 5.662879304384846 4 -1 -1
141 1 7.119290628185474 9.318427388063766 6.2465213684363485 1 2 -1
2317 1 9.111020947682807 11.485772526855667 5.335045457076034 3 1 1
198 3 10.337151164740906 6.912286476460137 4.153204084529158 2 -1 0
471 2 10.42034067596592 11.984059190145631 4.502975028638681 0 1 0
1281 3 10.946705173072962 9.915493414721082 6.16059123584753 -3 -1 0
10 1 14.224351636511344 11.559466903655071 2.8479766663702426 0 0 0
1561 2 13.290332675894854 7.828822207937714 4.1400500858988725 -2 -1 0
1192 3 13.773230085085379 11.441874428955119 5.022879230731573 0 0 1
1139 1 11.32416587735652 12.557021062325166 8.108619926525686 2 0 0
1079 3 15.54914524056197 9.682209319907333 3.685974897309265 -1 0 0
1009 1 20.24495450362498 9.441003780120717 2.875132140271209 0 -1 1
1034 1 17.746199940409753 8.97673836909481 4.0069046155530685 -1 0 1
1046 1 16.00025243242076 11.136771608415593 5.3157473094722665 -4 0 1
253 2 19.33773042490654 10.623701309908546 1.887947868702774 -1 0 0
225 1 19.754886487260038 9.641900266884493 5.867773857124328 1 -1 -1
2266 2 19.656456252591816 8.699560577565862 4.400971391125813 0 -1 0
1 1 22.33220276002067 8.267332252120138 3.615007404431723 1 1 0
1087 3 21.098828259139054 11.611562394024174 6.8988619787245575 0 0 0
1001 1 2.7191622899404124 13.016236101213629 4.630158423766428 2 -1 0
161 2 1.6357300531020917 12.439015198025649 6.500487616123795 -1 0 0
2041 1 5.815791246136963 13.26772422152411 4.449427842360626 0 1 0
234 1 5.12981047297025 10.959582908101387 4.109699105818784 0 -1 0
793 3 4.537731011213749 13.172077242390841 6.143487984063637 -1 0 0
1104 1 5.70365518890477 14.460770582841656 7.209706365041189 1 0 2
1066 2 7.493353824098565 14.72130804761024 7.843162987694836 2 0 1
29 1 10.257466805618877 13.644295531417185 3.923688332133808 1 -1 0
2389 3 5.27854787438111 15.781527048700198 5.098042731376667 -1 1 1
1245 1 7.215923138186751 12.411296274868393 7.697925208823101 0 0 -1
328 1 10.355946971509994 14.744386436959125 6.6370403651319005 1 1 0
2273 2 12.028093007413458 13.971490608297966 4.368144793216239 1 2 0
1745 1 12.046434986777102 12.402478253564833 5.362827669480494 3 1 0
652 2 12.45367156697589 13.185560033492191 6.932322554976864 -2 0 1
187 3 14.594769728084463 15.087634983817956 5.412574344494935 -2 0 0
761 2 15.753898145738443 12.616021866308083 6.202613955547908 0 0 -1
1310 1 16.63236964581159 14.24515712332804 4.938034577056539 4 -2 1
1318 1 20.910861004779143 11.815879905866362 2.340828415667753 -2 -1 1
357 2 21.2320041257387 13.08016526983267 3.4760390350745194 -1 1 1
839 1 19.8124462432287 14.646371387347264 4.124341369944257 0 0 1
1448 1 0.06826450276557239 12.516192256536534 5.371861951313577 1 0 -1
1894 3 0.1446753400776879 14.382032514385 6.063993534722468 0 0 1
750 1 0.9193863593805569 16.208934208142125 5.8082742206029865 0 -2 -1
1604 1 3.6515202836115384 16.701287127292115 6.266289770387087 0 0 1
2333 1 21.991411877702795 17.903067908463434 2.708460280052128 2 1 1
552 2 2.799445341823624 16.14869439231729 8.117008182519474 1 0 -1
1182 3 0.9610688586718793 18.27825553396812 6.558338153813418 1 1 1
2171 2 6.3588313061627195 18.834172774131012 4.635847260043117 2 0 1
1344 1 5.929285900629176 17.67758848132945 6.189151456958145 2 0 0
1419 1 7.402401575671966 16.418494247428754 4.564859517809539 0 0 -1
678 3 7.369269525439192 18.71576759210489 7.381609667228334 0 0 2
2318 1 9.131452069945187 19.189451922454378 8.148172206260947 1 -2 2
1479 3 9.916158200392635 15.80802449129721 4.796756409579081 -1 0 -1
918 1 7.347940910582796 16.60549146617701 8.526765682596622 0 -1 1
840 1 12.305863483975722 15.885988196896843 5.1323202606771074 3 1 1
2155 2 12.085115479500141 16.243217827061883 6.742237470571425 -1 1 -1
916 1 10.617876704356688 17.590970226185675 6.373735045697564 3 0 1
1360 2 16.414817490675137 17.27585317771413 3.6745720037193492 -1 2 -1
237 1 14.114948961311725 18.14485535119317 5.1245956178338306 0 2 0
294 3 18.245012574404953 15.92848177695935 5.383784119332363 -2 0 0
1303 1 16.863534555056418 18.025074861796686 5.6384433471707345 -2 1 0
534 1 14.055816796765352 13.312315422896287 6.446270612100779 0 1 1
1076 3 20.98286031646797 16.509354196217213 3.8471892329306825 -1 0 1
1916 1 3.293324611402604 23.2102467200312 6.123474755104662 -1 0 0
2294 3 2.298498258458884 20.661458740498958 5.265470517408136 1 0 0
608 1 4.8519930050256015 19.8166524989577 5.307890259346205 -1 0 1
2187 3 1.9404010272769336 21.803682830230233 8.755181233920588 0 0 0
31 1 6.280587602579864 22.54110676855746 5.468484019975628 -1 1 1
861 2 4.989002382145928 22.521854587578325 3.7461224942638403 -3 -1 0
9 1 10.555579402037566 17.1413718213574 3.0472096427251834 0 0 1
952 2 12.948110634895603 20.065447858918812 6.501219229040416 0 2 1
1534 1 8.341478405119302 19.392908040095737 4.927221205338846 1 1 1
2058 2 5.915432030604925 21.158569497354918 6.543491371976024 1 -1 0
1624 1 9.222856365616561 22.86071633613662 5.589771176239473 -1 1 0
1681 3 11.049546042574447 19.9666312539799 2.5052544282900002 0 -1 0
684 3 13.239075877708457 21.473256982275284 2.5331578641867787 -3 0 0
2034 1 12.014936500952194 20.27935372503422 4.975723837180867 0 -2 1
2194 3 12.02493721433797 17.87983669730905 4.575437850150023 -2 1 0
65 2 14.522149644163065 19.806518775186586 4.305917430145024 3 -3 0
1703 1 14.529288487203445 20.880429640629256 5.801665659689381 -3 1 1
679 3 16.022287245662735 18.052370835307165 7.556512347810108 1 0 0
774 2 17.36133052494713 19.69765753244873 4.9897077115058055 0 1 -1
2167 2 15.946754263505625 21.255800391744007 6.9978256454926 -2 1 0
364 2 21.975831244972724 20.148057639175285 7.79346278673636 -1 1 0
919 1 19.103996640143865 19.82688129702432 4.548336119884287 0 0 1
2 1 20.499660424411086 20.82814759179941 7.418733418429056 0 0 0
2072 2 20.77276978322464 20.12993837627212 5.553074823518359 -1 1 0
2006 1 0.1786749957239907 20.101087898975788 6.013782403804031 0 0 1
1175 2 21.34236826064411 22.177439232666433 6.425729729865467 -3 0 1
336 1 3.501094416405917 27.230751699393213 4.833029598266247 0 -2 -1
1504 1 0.2788797528186699 22.592954619558988 7.758487954565515 -1 -1 0
1135 1 7.200732856213893 25.698562894341944 5.854365532950402 0 0 -1
160 2 7.647230835069296 23.639044256604844 6.1977270712108945 -1 -3 -1
585 3 4.779542734465864 24.81387312903971 6.085912493979907 0 0 0
1836 1 10.594156925438506 22.02473955315514 3.365839434211116 0 -1 0
2100 3 11.860090712812912 23.04680003762091 5.080512407379277 1 0 2
1086 3 8.2689847410268 26.879094006110748 7.035962669575972 -1 0 1
1346 1 13.25944405871005 23.528970466011003 2.5723791856792864 -1 2 1
1763 2 11.41788908000696 23.414091119038645 2.2201166483348884 -1 1 0
574 2 14.024109553633908 24.944257450253108 4.020991204215651 -2 1 -1
1005 1 13.745451232164095 23.914984795431202 5.519158340763231 -1 1 0
2076 3 15.63124969326682 23.021487912300724 4.987335723877223 1 -1 0
2242 1 17.176635793809286 21.354072844697097 5.571664208711144 0 2 0
217 1 16.06493108859585 25.030055575424672 4.125305137273519 -2 1 0
1868 2 17.580699133687258 24.96586310278499 5.90312589862534 -3 -1 0
549 1 18.044433009919192 22.76041174690958 2.8433316042757912 -2 -1 0
561 2 19.093495512121308 23.087267258678022 4.17393146909052 1 -1 0
1502 1 20.307901597506596 22.127544108340768 4.8567816678292335 -1 -2 0
2283 3 18.598759046734198 22.213147801101886 6.542012737788995 1 1 0
1543 1 19.249764059166697 24.346730557431087 6.008687417645008 -1 1 1
2388 3 0.9733121019967231 27.168915308427895 4.537896655328389 1 0 1
2182 3 21.04758323147055 24.99769169048001 5.22501170649509 0 -1 1
1450 1 1.622001623230836 28.475171590281015 6.146820891342704 1 1 0
80 3 1.3247766777723953 30.31270442105045 6.875487744191928 1 0 -1
1588 3 3.7381051915750376 29.3939012006606 4.665454439120864 0 -2 1
1929 1 6.830208805581394 28.520757929789667 5.390609652374958 1 -2 1
98 3 8.263632340534672 28.58098022583531 3.625227058257896 0 0 -1
1506 1 10.835391510747119 27.0618736834766 6.249265882797927 0 -1 1
2264 2 12.519756559048721 27.031200152521425 5.122081622384891 2 2 1
1236 1 9.799006102711749 29.433647168879578 4.926779638871511 -2 0 1
1581 3 8.611592114940041 30.894994025618185 5.753700867840088 -2 -1 0
1874 2 11.133856743431556 25.417549710495514 7.615056276243173 -1 0 0
1176 3 14.368559028564723 28.600850066822844 7.101340649163928 1 0 0
2231 1 13.463296343370025 26.50430363870916 7.1415848082014035 -1 0 0
448 1 18.077796120860583 27.144939306631976 4.540720387669692 1 -2 1
152 2 18.680319009789983 27.890272311939643 6.87745467688837 -1 -1 0
1069 2 17.968223983961185 25.57416814812082 3.3033565192549994 0 -2 2
1586 3 15.97703993834772 27.092866961543656 4.087335403707974 0 0 1
42 1 15.77166516969137 28.398851679743206 5.658326904769965 0 0 0
600 3 19.058280823131017 24.937285227837716 8.321854428956641 -1 0 1
924 1 20.650915655916627 27.283111166051512 6.792057313196322 0 0 0
290 3 20.228142195244825 28.51037513974459 3.664611268168859 2 -2 0
770 2 3.097395802289997 31.95006776810054 4.297348576122305 3 0 1
1640 1 1.6417375212075265 31.15771852694774 4.602962600210119 0 1 1
1562 2 3.997212878053122 31.875476894398492 7.837334332803492 -1 1 1
1219 1 4.336802783603883 31.202327052417484 5.709121309293334 1 1 -1
1211 1 3.752251023631417 33.487354578432246 7.157170311382356 -4 -2 0
1042 1 7.189713045859316 32.501296239600045 6.056970841827232 1 0 0
2366 2 7.345972055097133 32.4319224984035 7.966992648965249 0 -1 0
1033 1 10.079263817479905 32.38667428258787 5.145150812641495 -1 1 0
1693 3 11.440079348752931 30.709498289195444 5.276488228897265 1 -2 0
1300 3 10.418350523790737 30.37288627024576 9.180084082400228 2 0 0
1289 3 14.508324406401059 30.004048399649843 4.476359465665775 2 -1 1
925 1 12.953699223026115 28.97491249055247 5.121163770328033 -1 -1 0
1796 3 15.025293712659964 31.34374765170161 7.854844174178486 0 0 1
1022 1 16.217360239742614 31.650186014431796 6.121968376168511 2 -1 1
1940 1 19.902025206480435 29.80569307600201 5.905362493318953 0 1 1
1751 2 0.23012227827777834 32.375709248337586 3.8510021885657695 1 -1 2
1686 3 21.058375476321405 32.29034821377348 5.735511947894037 -3 1 0
1742 1 21.600808659770095 31.167828004090975 3.2942710056906153 1 0 0
235 1 19.38354527740637 32.91585397983912 7.0009972916275816 -1 1 -1
2350 1 0.18917663036389307 32.22943710869389 7.476529886473177 0 -1 0
1988 3 0.5834228475999891 3.5041725820609377 6.66902808877893 -1 1 0
2202 1 4.283379386786132 2.922278874322566 8.767347066127542 0 3 0
1483 3 2.546243702458874 2.451797461170305 9.795191952832708 0 2 -1
2020 1 4.017698000066009 33.486813214750285 10.555961178517464 1 -1 0
554 2 1.5184960104395466 1.0123521543401257 12.296399071177136 1 1 1
1449 1 7.1459147826345015 0.7687708561977777 8.244217493669144 0 0 0
1162 2 6.940759518751553 0.9192567638206839 6.06741270238773 1 1 -1
2082 3 6.577897995962321 2.7535186471167306 8.396491324029572 -1 1 0
241 1 5.555096631080313 31.84211347068597 12.16610117069633 0 0 -1
1628 1 10.922843739067408 0.3765194872248695 7.610473378309281 3 0 0
1791 3 9.37729594441783 32.69149726460054 9.736857757154642 3 1 1
1098 3 11.62675960602384 4.164942219801164 9.697336527686737 0 1 1
1952 2 12.489157542149139 32.331508160719764 11.41994305566446 0 0 1
1830 1 11.457031485209427 32.29154046079575 10.024101977140301 0 -3 0
1611 1 14.381428570517718 4.1114960054627545 8.423073404246255 3 1 0
59 2 12.379920364453879 32.78581890344149 8.626320394377545 -1 0 -1
812 1 17.981879856607204 2.2289115711659133 6.507117506932449 -1 2 0
1866 2 17.249190383986406 4.75453098289902 9.262351859732622 -3 0 1
1997 3 14.922342853868301 2.1910924364155533 9.232298277882366 2 0 1
823 1 16.746792708990533 2.3498777570294305 10.121098383328032 -2 1 0
2077 3 20.802466279905918 3.4412114146543704 9.119649807264146 -1 1 1
2019 1 20.290051080335736 1.5124117098471663 9.179045280644674 -1 1 -1