FLiNa to FNa ratio: 1

100 atoms 
0  bonds
0  angles0  dihedrals
0  impropers

3 atom type
0  bond types
0  angle types
0  dihedral types
0  improper types

0.0 11.471171944527095 xlo xhi
0.0 11.471171944527095 ylo yhi
0.0 11.471171944527095 zlo zhi

Masses

1 18.998
2 6.941
2 22.99

Atoms

1 1 38.531 -250.729 107.108
2 1 -112.261 128.371 172.18 
3 1 -25.869 110.979 -29.887
4 1 8.557 167.936 119.95 
5 1 -116.636 244.761 -25.496
6 1 -12.587 292.345 80.765
7 1 -205.608 265.132 -86.774
8 1 -12.387 181.638 62.811
9 1 90.085 -43.325 9.071
10 1 131.384 61.418 -40.502
11 1 69.073 -56.624 56.383
12 1 162.502 343.086 41.252
13 1 -97.338 71.382 -157.298
14 1 -11.224 6.842 117.884
15 1 85.596 4.513 -49.539
16 1 204.749 75.802 89.917
17 1 5.988 222.019 82.149
18 1 194.888 -58.114 -11.968
19 1 -63.543 -158.06 -24.543
20 1 109.325 -17.842 5.033
21 1 22.853 33.945 87.494
22 1 311.783 -89.937 -143.948
23 1 173.78 164.141 303.712
24 1 -16.258 293.491 20.952
25 1 320.032 54.273 17.076
26 1 135.579 161.203 181.185
27 1 -47.072 -89.826 -1.352
28 1 139.151 -7.454 5.049
29 1 67.281 91.6 159.663
30 1 81.926 128.185 151.263
31 1 -30.932 8.031 183.143
32 1 -25.995 -47.491 -63.29 
33 1 79.116 5.491 -146.337
34 1 -86.059 -2.805 74.967
35 1 135.999 -35.66 290.491
36 1 174.999 -31.985 -174.049
37 1 108.124 -65.736 -8.324
38 1 202.113 -23.518 66.373
39 1 90.157 301.749 180.112
40 1 -106.134 -71.999 10.35 
41 1 53.267 38.748 -59.243
42 1 233.378 -56.562 38.802
43 1 -24.759 -25.248 37.808
44 1 92.292 -81.49 80.264
45 1 135.227 222.571 -8.326
46 1 256.171 134.005 29.613
47 1 32.144 219.766 139.437
48 1 23.73 -110.816 -252.351
49 1 -1.991 125.711 74.618
50 1 45.524 118.216 266.939
51 3 110.773 90.038 0.929
52 3 25.477 -50.86 -10.663
53 3 326.691 122.816 25.168
54 3 -189.648 262.378 -202.247
55 3 262.537 143.074 -123.735
56 3 -78.036 -131.119 117.549
57 3 27.61 17.167 -86.063
58 3 -44.162 97.261 -102.029
59 3 -8.033 250.093 120.802
60 3 4.764 169.065 -192.447
61 3 281.321 -92.177 140.58 
62 3 -36.34 0.863 -130.07 
63 3 -10.992 86.599 35.852
64 3 89.072 340.893 247.337
65 3 -111.22 131.692 149.676
66 3 -74.437 -21.197 -49.359
67 3 -8.084 199.079 -191.211
68 3 -111.965 -52.733 286.25 
69 3 -39.044 -66.467 -72.084
70 3 187.589 -47.974 -159.749
71 3 -67.552 186.732 127.145
72 3 -152.742 183.194 221.948
73 3 -29.869 30.696 198.264
74 3 -41.293 129.741 101.257
75 3 40.548 156.858 344.143
76 3 108.787 -127.151 203.446
77 3 -1.764 110.315 95.225
78 3 117.714 35.557 -91.345
79 3 28.352 -218.966 -23.523
80 3 40.814 -86.997 140.141
81 3 104.073 128.127 163.46 
82 3 71.806 -72.082 211.901
83 3 397.142 270.186 -213.994
84 3 -4.292 112.267 18.295
85 3 23.083 106.411 127.422
86 3 298.918 -11.431 94.256
87 3 -63.714 -169.894 48.564
88 3 1.314 192.79 378.908
89 3 24.261 212.77 221.244
90 3 -216.345 341.308 24.327
91 3 12.241 15.643 369.373
92 3 66.354 362.276 262.963
93 3 217.069 98.859 -46.236
94 3 -76.634 -81.241 -88.252
95 3 25.121 -25.441 182.26 
96 3 243.493 38.704 -1.289
97 3 85.89 326.277 149.627
98 3 205.411 -373.586 424.322
99 3 65.833 285.671 99.317
100 3 122.256 102.277 67.098