LAMMPS data file via write_data, version 29 Sep 2021, timestep = 450000

2400 atoms
3 atom types

0 22.94234388905419 xlo xhi
0 34.413515833581286 ylo yhi
0 45.88468777810838 zlo zhi

Masses

1 18.998403163
2 6.938
3 22.989769

Atoms # atomic

89 3 2.852454912404316 3.006508457226638 0.7789199353763628 0 0 0
44 1 2.7820773141540687 0.8587240518732517 45.8528014630113 0 0 -1
96 3 22.884573567795496 2.4501316116908876 3.2120267220977 -1 0 0
37 1 0.21110768423151355 2.8321023289211458 0.8555448922219598 0 0 0
179 3 2.5857995404822876 0.47413823935547256 2.0510455331187467 1 0 0
19 1 2.9489080413286852 2.717960498920446 3.213953215462104 0 0 0
1876 3 0.12551902174300267 0.34404402022021563 45.79554058532444 0 0 0
7 1 5.412985382446512 0.6302246225597407 2.5785192236624006 0 0 0
54 3 5.112825599034026 2.5920712421322194 3.273403464370401 0 0 0
1872 3 5.981488853876626 1.113550069409095 0.4562552072899042 0 0 1
22 1 5.0535632102958505 3.0153858954499864 1.163881868267561 0 0 0
25 1 8.213929999997479 3.6116707316410275 3.378377730091442 0 0 0
5 1 8.245129881264804 1.0922490756490266 0.6506990802206125 0 0 0
56 3 8.21316138457225 0.9113598458565707 2.975155199889909 0 0 0
132 1 10.582251417354485 1.5384057597297403 3.1736865596620727 0 0 0
73 3 10.544408709686673 1.9460725849548937 0.3794497665909309 0 0 0
196 3 10.675389308505517 3.8535197544985857 3.014548803460419 0 0 0
75 3 8.206180997856984 3.8399438157568073 1.1037014964955183 0 0 0
1842 1 12.743268475667323 2.107562482974786 0.826757234402301 0 0 1
194 3 12.7141947554409 1.4666835510049878 2.9124196832889138 0 0 0
158 3 15.628928625058304 2.4268424831258573 0.8076089462450692 0 0 0
107 1 15.380311616011449 1.822450262334476 2.8201689480609846 0 0 0
577 3 17.950321306841566 2.1546282963217855 3.1760864237260007 0 1 0
105 1 18.324463725831965 2.527942400194518 0.707393303316972 0 0 0
2363 3 18.414572919615388 0.13971449853908283 0.5424861780930008 0 1 1
156 3 20.770032601540272 2.433418636688515 0.7651809885222755 0 0 0
125 1 20.577094156182614 2.1217757631711005 3.050570089554313 0 0 0
182 3 20.659704939229847 34.37601959346731 2.6535617544649 0 -1 0
140 1 20.934096134215135 0.36503833057553914 0.014561502614494487 0 0 0
1801 1 2.5392981372812655 5.550823533536798 1.2014005472559204 0 0 1
171 3 22.835201820523466 5.12763547900449 1.2624172424733477 0 0 0
41 1 22.870939808886124 7.957923452300287 1.563841372694024 -1 0 0
169 3 2.6059633466349585 4.831027793074495 3.4672001226434968 1 0 0
1874 3 2.301209394876999 8.241884694786233 1.8016239959421674 0 0 1
67 3 4.827413357999927 5.915597584990425 1.6214875143404452 0 0 0
38 1 7.546118804470941 5.97837245781552 1.310463288655853 0 0 0
137 1 10.479805527538266 4.1017477881365725 0.9154611382927303 0 0 0
85 3 9.798712174477712 6.5130869118931445 1.5700216449729016 0 0 0
119 1 12.738905851715156 3.8970765974012043 3.5105156218010927 0 0 0
1887 3 12.903354075373638 4.148609691339727 0.8850906274476661 0 0 1
1906 1 12.490201603661122 6.717670926193917 1.5127564813034073 0 0 1
146 1 14.964431016369776 4.44496484855876 1.298296282681822 0 0 0
167 3 14.871574543234473 4.05524909233039 3.4013139697545354 0 0 0
123 1 18.01917505614089 4.482910541849707 3.6188658153120987 0 0 0
1861 3 14.826778525343675 6.933114572939036 1.403422449740866 0 0 1
1953 3 18.145299486366774 4.833072913359748 0.8848127150009755 0 0 1
1904 1 17.34832520894453 6.561529124081382 1.6787224378750805 0 0 1
138 1 20.432537412743017 5.228470490124739 1.3340558637459121 0 0 0
181 3 20.404376910878206 7.571025739022101 1.5025494724256594 0 0 0
165 3 20.299552651131485 4.269120440175726 3.578846893497772 0 0 0
8 1 2.4234365466215637 10.379637579357777 2.2594696506518717 0 0 0
60 3 1.7774702489956484 10.437623698892285 0.08187940732836708 0 0 0
20 1 4.784222067376402 7.978506880755687 2.07260141859921 0 0 0
70 3 4.7044864292053665 10.235792512109162 2.333908967406957 0 0 0
240 1 6.991858369792415 10.881056708138631 2.0721801081675384 0 0 0
71 3 7.412244760120003 8.614782116817345 1.9012080639514943 0 0 0
120 1 9.661777244625506 8.911836643932206 2.004400265277943 0 0 0
396 3 9.937641631129983 11.182931834964869 2.1995707580297434 0 0 0
2036 1 7.525482598539213 8.992012895339741 45.34182076462238 0 0 0
190 3 12.313336173258797 9.061784694847848 2.072859067153947 0 0 0
102 1 14.904873130030868 9.051995782340072 2.0018208269901354 0 0 0
332 1 12.242261987356084 11.378819451448967 2.2880277427873303 0 0 0
152 3 16.938210590977697 9.783104028160656 1.7546614687292093 0 0 0
90 3 22.105253561147553 9.82389775787232 2.0958136021187057 -1 0 0
340 1 19.982365790661344 9.60117630293542 2.1363937661802193 0 0 0
295 3 2.0731262624436066 12.614959305106371 2.5509691088423674 0 0 0
244 1 1.7042135842450366 13.078805840343154 0.4403404533789088 0 0 0
220 1 2.2470147259331896 14.89272181733326 3.1995163452143247 0 0 0
558 3 2.135017908067668 15.446027446982114 1.0891079329807873 1 0 0
207 1 4.572805842223936 12.705256337518662 2.847790449488931 0 0 0
256 3 6.729958339208633 12.726777699002012 2.626334199613351 0 0 0
258 3 4.8451965034989195 13.130511259819512 0.36992511590068183 0 0 0
359 3 4.344571808921474 15.091755522256573 3.421834906478655 1 0 0
205 1 7.1176214696596185 13.288487067052579 0.17935937307808902 0 0 0
141 1 9.910550066358272 11.642851444548157 0.33107083033214996 0 0 0
225 1 9.840745565936917 13.272009373698392 2.6568958346480933 0 0 0
279 3 9.749443284426077 13.794242333082861 0.4698935507694156 0 0 0
170 3 14.759732378681914 11.163700332069173 2.530706633763331 0 0 0
2112 1 12.447285842777864 14.198700747574716 0.24729113687530385 0 0 1
354 3 12.145243450725257 13.571307145871954 2.720102107038108 0 0 0
358 3 14.826844376647013 14.007033966773344 0.7361672875612509 0 0 0
307 1 14.504142185560555 13.41876850512446 2.8658137601447287 0 0 0
389 3 12.624570797520485 11.956088120937327 0.030215403272517972 0 0 0
344 1 14.857573496776503 12.020903452342344 45.74245528437168 0 0 -1
1921 1 16.998123710835518 11.891029327145416 2.267873828169934 0 0 1
362 3 16.78533470626441 13.813747563696744 2.954627090403831 0 0 0
305 1 16.93095345814881 14.556258227475528 0.7482191342744934 0 0 0
2076 3 17.049419638546258 12.406671300317958 45.52689398039415 -1 0 0
325 1 22.45790251900693 12.267874603875237 2.354110846085653 0 0 0
289 3 22.166378149942148 14.751316656551328 2.848475602948433 -1 0 0
356 3 19.950975191813452 11.998133819673166 2.4781835544624027 0 0 0
323 1 19.817278445856996 14.412070584857563 2.9668131491956857 0 0 0
51 3 22.105022502465204 12.871918129633096 0.16450587419874968 -1 0 0
296 3 19.400998774385144 14.765893610382868 0.6871158335355074 -1 0 0
2128 1 19.409715512053513 12.50439951355932 0.2093341218521194 0 0 1
235 1 21.766002950033208 15.26534742451578 0.7643775714642326 -1 0 0
303 1 1.6724752415704272 18.032581774659345 1.3645840743599449 1 0 0
222 1 4.35563760151961 15.672614084783522 1.014087656510961 0 0 0
267 3 3.954642378010382 17.993026804134026 1.47845736589587 0 0 0
230 1 6.900218628142048 18.26814831729731 1.247965702403472 0 0 0
271 3 6.541181133710207 15.665976734447343 0.6196110015328956 0 0 0
337 1 9.888465759650016 16.212079971469553 0.9634632278626641 0 0 0
388 3 9.021834015286542 18.58154080855241 1.592342071065928 0 0 0
386 3 11.853720360843269 16.983232414627356 1.0370135395400224 0 0 0
322 1 14.346275070668607 16.39307153886442 1.3005767683714788 0 0 0
346 1 11.636698973302428 18.993056341283857 1.5797987261345572 0 0 0
375 3 14.080756252590994 18.908678997863444 1.5616125979989386 0 0 0
319 1 11.86842887565074 16.033141407457627 2.911497021162478 0 0 0
594 3 14.159205041789939 16.343092897073017 3.5934337731880217 0 0 0
2100 3 16.60489179910746 16.742699917249055 1.4741313881830147 0 0 1
517 1 16.615402203718332 19.531967971636075 2.0061217780169516 0 0 0
308 1 19.181845022024408 17.042224941076654 1.1782148067471712 0 0 0
367 3 21.64184955858562 17.828065787433225 1.4138018274405582 0 0 0
257 3 1.8710846729346113 20.448066036087997 1.6618761280623315 0 0 0
309 1 1.4040605692376322 22.560556760711414 2.2078296620435873 1 0 0
288 3 3.7248738358889075 22.55306990939065 2.338542441162719 0 0 0
208 1 4.10500591558159 20.346635207684887 2.0509655666723394 0 0 0
298 3 6.513696479352975 20.627061201826514 1.868673319171847 0 0 0
415 1 6.131893831225712 22.725743800119872 2.1221812402568663 0 0 0
260 3 6.017920762309267 23.388207577471206 0.1436669645122271 0 0 0
447 1 6.3226321379924135 20.558224626287306 45.56650936951862 0 0 -1
203 1 9.077878167431447 20.964365454564536 2.059359625686292 0 0 0
390 3 9.190589909243274 23.34868908919535 2.641294287234345 0 0 0
370 3 11.707479386100369 21.416110208969904 2.1455164607782975 0 0 0
302 1 14.390280076309166 21.194936244495064 2.1260020129439727 0 0 0
575 3 14.546605065109002 21.91556831318038 45.632132198792114 0 0 -1
479 3 16.496064289554504 21.668680208344433 2.575211443521057 0 0 0
547 1 19.05633034110973 22.20827038581856 2.38865865453129 0 0 0
351 3 19.126088121540235 19.87143755253233 2.0402396444565594 0 0 0
324 1 16.917584322443698 22.23331942427439 45.51973814101224 0 0 -1
338 1 21.42334838876955 19.967934323438573 1.637448578765837 0 0 0
1099 3 21.25885322736802 22.166351755614652 2.230292859398285 -1 0 0
2328 1 21.75847443819708 22.940387163592415 0.21817009210416868 0 0 1
559 3 0.7557731104647823 24.87934936365931 2.809606382536501 1 0 0
444 1 1.1424214706917597 25.48396385552311 0.3900877737400879 0 0 0
458 3 3.6052427152096627 25.3026230531015 0.6662327186671189 0 0 0
419 1 3.7929676740880556 23.178863953877393 0.2229550588662044 0 0 0
407 1 3.6116719476237793 24.803984908615757 3.0442327832769007 0 0 0
422 1 6.16582380214039 25.552430959770145 0.8886025303299898 0 0 0
497 3 6.309297247965738 24.9201902952761 2.93231464536552 0 0 0
473 3 9.054647491498681 26.07251315942634 0.769303536746912 0 0 0
514 1 9.063141225130172 25.662947490824802 2.9917842154576233 0 0 0
440 1 9.105747341118574 23.645196412702926 0.4110018795089137 0 0 0
537 1 11.482369629682784 26.15858789375693 0.6082048997452778 0 0 0
475 3 11.455069802778054 25.840590173709266 3.190596336638681 0 0 0
306 1 11.27492722938575 23.3381372551493 2.8166321318844094 0 0 0
2284 3 11.230194574773945 24.19899590193256 0.16255596385498433 0 0 1
500 3 14.308849399695802 23.664885200136183 2.4899725395498726 0 0 0
544 1 14.344266829136124 24.16658451154242 0.1910075823851592 0 0 0
512 1 14.126494271212579 25.971814048312222 3.3683504031844222 0 0 0
589 3 14.25472207805623 26.73743220350684 0.7482070407276616 0 0 0
507 1 16.408860352208748 24.098107538405515 3.0888785347586545 0 0 0
581 3 16.39540790243592 24.35517590635964 0.8090472162895632 0 0 0
595 3 16.318487420878302 26.22539853353071 3.576853575223695 0 0 0
552 3 19.184408531697983 24.43378023400219 2.8317261359986814 0 0 0
2139 1 19.120461356942982 25.018369933110236 0.3119227572463264 0 0 1
540 1 18.84110332762331 26.74222747325186 3.2252052942188825 0 0 0
525 1 21.361401568212223 24.519998872641896 3.140398128495377 0 0 0
2372 3 21.502522813332977 25.10377281425963 0.3526246640058998 0 0 1
466 3 1.2363636320282951 27.765988986212196 0.7848968395592542 0 0 0
420 1 1.0103591724932517 29.975633338039117 1.7742953972771782 0 0 0
2274 3 3.293378730390739 29.941751160847122 1.6664867635132619 0 0 1
411 1 3.5173716636204375 27.811833383387842 1.1634156036325203 0 0 0
494 3 6.286862435128791 28.03576983136877 1.168170566964682 0 0 0
402 1 5.93890306194743 30.397620903941373 1.3841711072960194 0 0 0
438 1 8.367111077297904 28.222575649776875 1.3542876084192788 0 0 0
557 3 11.335693055054978 28.73324957650394 1.6649087754724945 0 0 0
465 3 8.649056453478684 27.72741997122 3.7100018857367716 0 0 0
499 3 8.355134665150757 30.573783967704955 1.9611786909181192 0 0 0
541 1 10.892026782129646 27.999473786663586 3.7403278130462496 0 0 0
535 1 8.71668888131793 30.174417795583473 4.139400179850022 0 0 0
546 1 13.357905266037408 28.83000078666645 1.5585260666330465 0 0 0
598 3 13.57202058296924 28.420278504366575 3.7179378666048946 0 0 0
522 1 16.264636890339606 26.556552942279218 1.1729518064311073 0 0 0
565 3 15.896116841810384 29.47021642472031 1.6222364206378965 0 0 0
538 1 18.980525543646532 29.46620948266253 1.87427962645008 0 0 0
567 3 18.57665209935344 27.03743440983173 1.0811177035496982 0 0 0
2301 1 21.58951587860013 27.24632045234825 1.0161636281484887 0 0 1
2353 3 21.34085981095261 29.715884931282098 1.6475132259140985 0 0 1
571 3 21.27630699620669 26.923530330205278 3.415430790628012 0 0 0
32 1 0.1841072877893217 0.058360665356509855 2.5156241405169144 0 0 0
441 1 3.1545584152074544 32.33278235660118 1.6265622777012836 0 0 0
154 3 0.6202142107100961 32.13732305672397 2.1081975239216315 1 -1 0
485 3 5.347699569190681 32.70746329303717 2.031929342439567 0 0 0
47 1 5.763780178651044 33.438807988313414 45.680479062410456 0 -1 -1
409 1 10.941407276619426 30.929129929178572 1.6791109562527202 0 0 0
40 1 8.336051712960128 32.92289215876028 2.276191901324803 0 -1 0
493 3 10.817824510989746 33.067971168186354 2.2964281540841296 0 0 0
144 1 10.40966780576518 33.39455384767402 45.49890538335052 0 -1 -1
122 1 12.895593150955607 33.78409195481863 2.624400950974885 0 -1 0
566 3 13.142258275972626 31.445623085147403 2.030124075924096 0 0 0
2339 1 15.4384360641287 0.17919864656140427 0.14689722678873263 0 1 1
147 1 17.904510561920265 34.24356258609438 2.540214246381528 0 -1 0
173 3 15.90594589831487 33.83736004697134 2.6724659968518076 0 -1 0
508 1 15.881797551668768 31.663422613018845 2.1965884391718355 0 0 0
585 3 18.078669882994372 31.830429363210772 2.343897911287646 0 0 0
1928 1 18.0234488806989 32.22565577754676 45.73241098792918 0 -1 0
2206 1 20.922371598781563 31.937967746492756 2.1064908355657477 -1 0 1
95 3 2.913292656561297 2.024941741047017 5.438561091392457 0 0 0
14 1 0.2837249194065753 2.261052533931576 5.249837406919966 0 0 0
43 1 5.2355815081724355 2.645360676188287 5.66772507245536 0 0 0
94 3 5.788971614333246 0.07402129411761796 4.783730128450442 0 0 0
59 3 7.877211788366193 2.96507958292931 5.426949375863978 0 0 0
27 1 8.06103249427259 0.6421288103423269 5.000567399140247 0 0 0
416 1 10.384880140188224 3.2675306596196156 6.010305838167842 0 1 0
53 3 10.655092902485995 1.1337976527199134 5.35122432390002 0 0 0
717 1 12.990073029930302 1.363230165050518 5.425185890649774 0 0 0
675 3 12.990511710442075 3.8212695795086424 5.836481738471576 0 0 0
177 3 13.164082516374167 0.6268003124339347 7.73083590978013 0 0 0
555 3 14.90059624641303 1.5422068774592728 5.0331343671764355 0 1 0
143 1 15.230242706050664 3.670411763039917 5.654093111159612 0 0 0
127 1 18.16125529367329 1.9292090361453607 5.518354026078997 0 0 0
752 3 17.865983080962028 3.9756329056171156 5.536222640726509 0 0 0
172 3 20.489156092904768 1.3390390693316694 5.573623223934163 0 0 0
35 1 22.60388099179726 4.98193598772382 3.404189024956462 -1 0 0
12 1 2.810762439084962 4.711308740597255 6.055702843178696 0 0 0
200 3 2.2893329460054557 6.895732063967321 6.217629445747669 1 0 0
46 1 2.2017349924850005 7.262113404656486 3.883833759354302 0 0 0
23 1 4.678976364251363 5.318355016225081 3.8155148301314896 0 0 0
64 3 4.929407495041413 4.796268439638175 5.942298798844676 0 0 0
31 1 4.788082238075527 7.287276648417567 6.546614427162981 0 0 0
98 3 7.342982006342588 5.537150896076091 3.594417393354639 0 0 0
10 1 7.7839549445150995 5.173679843660867 6.0141681850843955 0 0 0
82 3 7.553529895580737 7.588882893691719 6.240952909430575 0 0 0
9 1 9.810315226568381 6.446191527215468 3.721843077123728 0 0 0
100 3 9.985331957415829 5.676436079590679 5.912216896077896 0 0 0
157 3 12.582402208099264 6.265202302726326 3.901134225398088 0 0 0
112 1 12.200405443161234 6.073311738277476 5.9952463121407105 0 0 0
111 1 14.846698771907048 5.926565643232792 3.963369721673544 0 0 0
799 3 15.583715856637733 6.286743834097177 5.978733757304384 0 0 0
373 3 18.123276068440152 6.712991373068352 3.899501641698086 0 0 0
6 1 17.742910177764475 6.495220207202238 6.242961584251418 -1 0 0
88 3 22.80601665408905 7.314731405797018 3.6308305450039087 -1 0 0
26 1 22.50590650030802 6.840166085808335 6.27076014971217 -1 0 0
161 3 22.89061278430202 4.663157518788825 5.841230984051549 0 0 0
110 1 20.29926236288453 4.182801135311891 5.9040727654670535 0 0 0
164 3 20.12858288855216 6.636346388205339 5.870971877321133 0 0 0
130 1 20.421543575308746 7.281326622910158 3.939830162838022 0 0 0
379 3 2.13290764485508 10.107413684289877 4.781198538358291 1 0 0
21 1 1.9516340399755154 9.173296588531857 6.757285554208067 0 0 0
66 3 4.76006263080393 7.84811880817422 4.243233042998666 0 0 0
24 1 4.618313064500984 10.04892387169751 4.786897526759229 0 0 0
91 3 7.058417861543208 10.47217152001619 4.874538692854166 0 0 0
30 1 7.119804549813228 8.5115006141888 4.25871547279235 0 0 0
80 3 4.363111728846539 9.403051387752788 7.62477855633268 0 0 0
29 1 9.782765417556641 7.754168529576934 6.662739913665936 0 0 0
65 3 10.153763147980438 8.488180363672285 4.2735950577774355 0 0 0
333 1 9.532675444151641 10.627958344560748 4.715459703557675 0 0 0
155 3 11.880192840867528 7.952408504551783 7.108956112992821 0 0 0
135 1 12.174244307266713 8.600505832739016 4.314486340327262 0 0 0
93 3 12.05593274255821 10.59331453324693 4.8400171261955185 0 0 0
315 1 14.491229546779524 11.02352148157652 4.840840416149207 0 0 0
150 1 15.019950648798348 8.393343378334711 6.744653003291952 0 0 0
394 3 14.489521733189488 10.498507549295844 7.225837891113713 0 0 0
760 3 14.962291994468357 8.644824569988007 4.358174118415987 0 0 0
124 1 17.199613449783406 9.1068826950162 4.2346082434127 0 0 0
395 3 16.937479065726638 11.201489177217935 4.916421176329656 0 0 0
1974 3 17.424216784545457 8.587923532894598 6.933932495054897 0 0 1
233 1 22.32842025087488 9.68340761284383 4.522343687747243 -1 0 0
185 3 19.997796869036687 9.66379706948283 4.397161852560985 0 0 0
134 1 19.950560907997257 9.147395049360902 6.728319513090272 0 0 0
328 1 19.8039986615049 11.769101679148168 4.947937199056354 0 0 0
215 1 2.2094156741793483 12.428389057926168 4.623101263702136 0 0 0
255 3 1.7505860104787807 14.788142047980234 5.031643395541411 0 0 0
294 3 4.362660378380103 12.239264840200079 5.172659622690272 0 0 0
433 1 4.488786602513598 14.399387952599739 5.462175148794691 0 0 0
261 3 6.922665018367739 15.024742075564427 5.091051779208398 0 0 0
227 1 6.915605737904072 12.628450866270605 4.98531213450628 0 0 0
259 3 9.25391714226446 13.057707221497092 4.644351288729189 0 0 0
210 1 9.663240418920747 15.200435338427651 5.4024331276329205 0 0 0
314 1 12.035626992849823 13.325122700630313 5.222824684411552 0 0 0
300 3 14.495054376075762 13.164208921513085 5.251494095109678 0 0 0
265 3 11.93171280061121 15.614520774764648 5.323799295427534 0 0 0
311 1 16.961195569151222 13.560608744251244 5.215595173008015 0 0 0
331 1 22.179656548533696 14.147561569027841 5.279010259272851 0 0 0
193 3 22.702032848529136 12.130251727710004 4.9711509164279875 0 0 0
391 3 19.287428815398084 13.847399193251364 5.1851533699498535 0 0 0
392 3 1.2272413352601041 17.745915272408393 3.6856079640627324 1 0 0
243 1 1.9172456184610962 16.851542734674112 5.616131000444966 0 0 0
584 3 1.563887509680092 19.24053319551536 6.408236538891384 1 0 0
223 1 6.809449927548938 15.238302102787316 2.746098028439315 0 0 0
246 1 4.329239166275422 17.95258633443312 3.7734637429918503 0 0 0
282 3 6.88677885948797 17.78960466014909 3.3127751704665136 0 0 0
363 3 4.026546609997288 17.21349542127513 5.868381914298199 1 0 0
229 1 6.667149931891225 17.296131825785327 5.779901194321197 0 0 0
275 3 9.769969134593417 15.441928172659983 3.0651270725895814 0 0 0
238 1 9.311092011389071 18.249090376016305 3.7999753787136794 0 0 0
262 3 9.168647239213012 17.93926145486306 6.098432498165448 0 0 0
312 1 14.202452962474274 15.587237251070144 5.579750221704682 0 0 0
357 3 11.435790071216454 18.43211256581951 3.757034002369484 0 0 0
335 1 11.558586288263664 17.56309712650922 5.958190897418801 0 0 0
383 3 13.63198641828335 17.915007346733177 6.327902854080307 0 0 0
341 1 14.349050357647473 18.366233007093314 4.053243859319154 0 0 0
320 1 16.773493043439487 16.571039455881433 3.744035610627261 0 0 0
382 3 16.406174741933082 15.89866960974663 5.761705184050013 0 0 0
321 1 17.141295809249357 18.183441857578817 6.2282343442782215 0 0 0
292 3 16.91061948825801 18.813491272189925 4.236470342462894 0 0 0
339 1 19.032612250788215 16.325496747221145 5.952535531987512 0 0 0
361 3 19.198455555357224 18.73300397673504 6.5959968140704115 0 0 0
212 1 22.22236966656182 17.010537815100523 3.496470221558905 -1 0 0
365 3 19.189957457304146 16.346027495754186 3.747578198277725 0 0 0
981 3 21.930376377954236 16.278413426716746 5.8898849089242225 0 0 0
527 1 19.319561752713444 19.565822697496984 4.107120496997323 0 0 0
330 1 1.3648100379138544 19.939980098659607 3.762444698618941 1 0 0
476 3 1.151600949832184 22.22617153549456 4.756556911128848 0 0 0
226 1 1.289719047433131 21.447056851522426 6.994654079115386 0 0 0
495 3 3.4541815223034065 21.90190663430039 7.427105930651046 0 0 0
213 1 3.9579520866543825 22.288192339316534 4.51702634770804 0 0 0
231 1 3.8509353681747402 19.739769963835034 6.562430573441027 0 0 0
254 3 4.045970564778756 20.199071608660827 4.1363896234505 0 0 0
241 1 6.811777982656794 20.37556063360191 4.089538768846705 0 0 0
293 3 6.548274670854686 22.62564078103479 4.848747307648606 0 0 0
270 3 6.68003726501367 19.724389584481433 6.405544283116811 0 0 0
291 3 8.893903576504306 20.571173391490344 4.269444338812434 0 0 0
216 1 8.663403678303405 22.59834031070569 5.081698842192458 0 0 0
326 1 9.223076060252524 20.031075459337444 6.698486524743825 0 0 0
533 1 11.81204504161919 20.672169352194416 4.446671096047653 0 0 0
380 3 14.448738044110428 20.699578369356484 4.584703280547381 0 0 0
902 1 13.89894040466255 19.898226730743776 6.987826098028611 0 0 0
596 3 11.6488714246828 22.747340635803404 5.024335900366693 0 0 0
405 1 16.5109603164673 21.49422719248719 4.672760775683322 0 0 0
456 3 16.157158048219387 20.542619416099317 6.694905230592539 0 0 0
313 1 19.042903438938623 21.180719511804423 6.86417985784933 0 0 0
837 1 21.554413758086678 18.932635267885807 5.953322760003398 -1 0 0
2069 3 21.807606792963362 19.91326316599926 4.074200967584398 0 0 1
562 3 18.740276481375584 21.413402079200704 4.766908972523309 0 0 0
435 1 21.679787012418963 22.11666075741632 4.707644663529837 -1 0 0
556 3 21.600809546188547 21.552487222918693 6.777608598232667 0 0 0
542 1 1.1999859112335716 24.17402971417499 5.483891807459194 1 0 0
277 3 0.9742962915081339 26.2434007766284 5.715624008800141 0 0 0
579 3 3.1919631623866245 24.291634967880896 5.0218993561286664 1 0 0
425 1 6.728612112188862 25.07276910310286 5.070583128461627 0 0 0
459 3 8.991321499614509 24.851669339253185 5.342607774586311 0 0 0
532 1 11.09025835207456 25.24075683793092 5.4267200711472485 0 0 0
519 1 14.033709977345334 23.11379116722252 5.083549658206681 0 0 0
554 3 13.844941276914385 25.457934944817154 5.820271532045705 0 0 0
511 1 16.27664874997084 26.15904332930056 5.594302361910277 0 0 0
377 3 16.22122976734682 24.021762562019802 5.386041473108145 0 0 0
496 3 18.481487997201032 26.40054091507938 5.398109692758057 -1 0 0
355 3 18.74560139490637 23.453429929397704 7.12103140778572 0 0 0
510 1 18.487540111754036 24.119652443915225 4.948013660890618 0 0 0
266 3 20.970936004530866 24.456344403439722 5.321189770618371 -1 0 0
505 1 1.2301829697978002 27.392946612632336 3.1732069250356303 1 0 0
478 3 3.8158999129936144 27.297540380830817 3.414061750052517 0 0 0
443 1 3.647635908260157 26.574763508354263 5.696588462881585 0 0 0
451 3 0.967812067568185 29.42525984886638 3.981896727145042 0 0 0
412 1 0.9110307002659226 28.76592212846746 6.505298537944048 0 0 0
437 1 3.3011507165209912 29.65603502627648 4.0378831501107415 0 0 0
369 3 3.062041286853106 28.90833409193515 6.0595210933852375 1 0 0
427 1 5.841755190956176 27.64788798560106 3.552850825607917 0 0 0
484 3 6.367706474147448 27.066210573692747 6.00958272219448 0 0 0
431 1 6.1890784669819086 29.675132967604853 6.1719818829684465 0 0 0
498 3 6.483631375162629 29.930865973877516 3.9095619158762043 0 0 0
491 3 8.431880753439797 29.66693338391832 6.900786695987838 0 0 0
446 1 8.903195224098514 27.16899446266197 5.882771321581034 0 0 0
454 3 10.916138469687255 27.467012425660798 5.975515286851168 0 0 0
588 3 11.031922835473734 30.393296943875463 4.340151731795817 0 0 0
434 1 10.723479309199663 30.0280082600376 6.609861001151981 0 0 0
430 1 13.192510205001721 27.63643547867081 5.866231222764998 0 0 0
482 3 12.933193947289821 30.053075470516298 6.585857252642118 0 0 0
600 3 19.278689833183357 29.0392985473962 4.1663131082144265 0 0 0
523 1 15.982291535910582 29.172823451618335 3.673512949596169 0 0 0
564 3 15.871584846387517 28.14383395088348 5.540499598691497 0 0 0
531 1 18.365662940890452 28.542516388062126 6.069058795093918 0 0 0
580 3 18.602671601977914 30.685000206478325 6.7143442915459675 0 0 0
418 1 21.251876138312156 26.540299029118874 5.36077393075069 -1 0 0
432 1 21.577704038546948 28.975853108366262 3.7553859457653718 -1 0 0
488 3 21.46425518158197 28.483754203438565 6.03964066187622 -1 0 0
15 1 2.983947312465217 0.029988146474727324 4.845392541423418 0 0 0
33 1 0.5468473117345394 31.509957020306057 4.409175998767592 0 -1 0
455 3 3.3044841659959903 31.81871395863986 4.028382658553735 0 0 0
421 1 2.9880643769826523 31.330093844006548 6.512969429932297 0 0 0
159 3 0.36568142611129484 33.84755086586747 4.656994943272027 1 -1 0
162 3 2.8246890370134845 33.51397686216051 6.997937435310401 1 -1 0
424 1 5.244067897128827 32.567171604538956 4.261397898654319 0 0 0
477 3 5.506491006814374 31.82222293032617 6.594238072996625 0 0 0
470 3 8.189838638426927 32.68068014669066 4.662541792979477 0 0 0
520 1 10.724501050011671 32.90975433202874 4.592894170558246 0 0 0
84 3 10.61285382073602 32.315213714811044 6.909937840446092 0 -1 0
413 1 8.206208795676014 32.156222875655345 6.894099247104494 0 0 0
62 3 7.790862532414761 34.12785751966778 7.741060025493014 0 -1 0
423 1 13.272175384234837 30.93669766283417 3.94700178741009 0 0 0
492 3 13.020884418095768 33.196456596065985 4.679098419477762 0 0 0
408 1 12.9461413212153 32.59689576686701 6.846008186030856 0 0 0
114 1 15.470044826573442 31.10838958653778 6.7603333851768115 0 -1 0
115 1 15.724914063740943 33.604409841994865 4.832996744326386 0 -1 0
582 3 15.927189491954774 31.272486694214912 4.780856735133703 0 0 0
530 1 18.430413593136894 31.48752779704579 4.597421562503529 0 0 0
593 3 18.244326477718822 33.78488957377722 5.214442750163412 0 0 0
534 1 18.312293221068167 32.98176677301086 7.348498790713937 0 0 0
591 3 15.21438634936743 33.482045545428015 7.201385570449469 0 0 0
17 1 20.688777402848952 33.924459262902204 4.659065449547936 -1 -1 0
490 3 21.05690079978915 31.78238338367598 4.388088691433288 -1 0 0
503 1 20.970351835603843 30.901808049838138 6.499094093345049 0 0 0
709 1 2.4927019779069854 1.5561264827980184 7.661110819862326 1 0 0
796 3 2.248422999439721 1.071549597919787 10.11832327599094 0 0 0
178 3 0.2451622854598105 1.86287233733505 7.3901282150400975 1 0 0
1026 1 2.2059726575550784 3.353374990202829 10.4152134461883 -1 1 0
104 1 0.03942056075792877 3.9473734802910534 8.284061184878897 1 0 0
76 3 5.39998189834474 1.8417360294540845 7.765847376668938 0 0 0
48 1 5.381363387793617 1.7439741298445763 9.993628289271884 0 0 0
652 3 4.799791035136448 4.056999669802786 10.423929611458286 0 0 0
78 3 8.121181650890314 1.7155995877262868 10.268919422981865 0 0 0
11 1 8.014539366918756 2.244236892968555 7.8190544422741 0 0 0
87 3 10.64485351819135 2.57764652072693 8.107416986336684 0 0 0
638 1 10.268553026568156 2.0330659306738696 10.029852732929523 0 0 0
133 1 12.956949616009187 3.090371123154697 8.211689011798297 0 0 0
174 3 13.358355000050771 2.381521720335721 10.31713003832235 0 0 0
195 3 15.960513739395926 3.302662490526338 7.57029045793894 0 0 0
719 1 15.565438695411858 1.1631327793981163 7.039806757742781 0 0 0
163 3 18.430935706826634 0.9702743231354999 7.853545124130207 0 0 0
128 1 18.182163683092508 3.3539719949240543 8.149556682059604 0 0 0
180 3 18.206963238771056 2.861672949466974 10.531737882804224 0 0 0
539 1 17.933516835512794 0.2875391688310027 10.085713375662458 0 1 0
42 1 15.529921545651723 2.7725974143764214 10.505972186143968 0 0 0
722 1 0.16846030083519786 1.187763527352352 10.04978252055867 1 0 0
513 1 20.69048362099932 1.2512253423906459 7.639047492343876 0 1 0
198 3 20.75868486131156 0.9384714512262899 10.032625985220603 0 0 0
786 3 20.231265560445447 3.3479132635185525 8.05075570819326 0 0 0
83 3 2.4306260762129663 4.052143476762323 8.072557451687336 0 0 0
50 1 2.0840972882940503 6.580267002455998 8.709846835910394 0 0 0
384 3 22.425184997788975 6.453090248084864 8.32558354212205 0 0 0
4 1 5.444285627606742 4.538878370421173 8.382826204492568 0 0 0
699 3 5.543871797008946 6.850847273331634 8.967574100872563 0 0 0
603 1 7.509781074560397 7.403016255030863 9.315487812337599 0 0 0
55 3 7.833028379598596 4.2384217148290375 8.137192634839689 0 0 0
637 1 8.30416511326476 3.965000708589612 10.528972647143211 0 0 0
118 1 10.337213338633063 5.1280582536885735 8.81300161664751 0 0 0
61 3 9.461576494995926 7.167955545773114 9.116742099843636 0 0 0
671 3 10.678760068737208 4.2100697079361975 10.715250851137258 0 0 0
69 3 12.531629960258973 5.232136800405369 8.39700480131265 0 0 0
711 1 12.94294985937879 7.3139877925350865 8.986317923604426 0 0 0
188 3 15.13357691453276 7.688571246501866 8.776374966844429 0 0 0
721 1 15.732316132788492 5.471459992125316 8.200545799343745 0 0 0
191 3 17.804617310549034 5.865860962960636 9.107332348176813 0 0 0
131 1 17.906219882361608 8.343696354213362 8.940675191280215 0 0 0
121 1 20.075288803812487 6.2750736357710295 8.731923520375188 0 0 0
771 3 1.9289970663901197 8.452614015060522 9.868866241637999 1 0 0
602 1 2.008707857002482 11.306243281972396 9.807288233916415 0 0 0
34 1 7.1270331034523275 9.723047014918025 7.091797448021285 0 0 0
39 1 4.86547132702059 9.315003888320055 9.904853256103745 0 0 0