LAMMPS (29 Sep 2021 - Update 2)
OMP_NUM_THREADS environment is not set. Defaulting to 1 thread. (src/comm.cpp:98)
  using 1 OpenMP thread(s) per MPI task
Reading data file ...
  orthogonal box = (0.0000000 0.0000000 0.0000000) to (22.942344 34.413516 45.884688)
  1 by 1 by 1 MPI processor grid
  reading atoms ...
  2400 atoms
  reading velocities ...
  2400 velocities
  read_data CPU = 0.011 seconds
NEQUIP is using device cuda
NequIP Coeff: type 1 is element F
NequIP Coeff: type 2 is element Li
NequIP Coeff: type 3 is element Na
Loading model from FLiNa_f_pyt10.2
Freezing TorchScript model...
Neighbor list info ...
  update every 1 steps, delay 10 steps, check yes
  max neighbors/atom: 2000, page size: 100000
  master list distance cutoff = 7
  ghost atom cutoff = 7
  binsize = 3.5, bins = 7 10 14
  1 neighbor lists, perpetual/occasional/extra = 1 0 0
  (1) pair nequip, perpetual
      attributes: full, newton off
      pair build: full/bin/atomonly
      stencil: full/bin/3d
      bin: standard
Setting up Verlet run ...
  Unit style    : metal
  Current step  : 0
  Time step     : 0.001
Per MPI rank memory allocation (min/avg/max) = 3.979 | 3.979 | 3.979 Mbytes
Step Temp E_pair E_mol TotEng Press 
       0         1200   -10225.925            0   -9853.8107    10971.364 
     100    1189.0987   -10215.303            0   -9846.5691    10871.696 
     200    1196.3525   -10206.321            0   -9835.3383    10938.015 
     300    1228.0675   -10216.299            0   -9835.4811    11227.979 
     400     1202.336   -10215.233            0   -9842.3949    10992.722 
     500    1177.3367   -10216.526            0     -9851.44    10764.158 
     600    1190.6192   -10227.387            0   -9858.1816    10885.597 
     700     1182.833   -10234.018            0   -9867.2269     10814.41 
     800    1182.6489   -10226.225            0    -9859.491    10812.726 
     900    1192.3557   -10216.983            0   -9847.2397    10901.474 
    1000    1194.1189   -10213.855            0   -9843.5651    10917.594 
    1100    1225.3896   -10223.025            0   -9843.0381    11203.496 
    1200    1201.6708   -10227.319            0   -9854.6871     10986.64 
    1300    1177.4887     -10231.1            0   -9865.9661    10765.548 
    1400    1215.7008   -10234.905            0   -9857.9224    11114.913 
    1500    1197.3111   -10226.922            0   -9855.6416     10946.78 
    1600    1202.4711   -10227.796            0   -9854.9155    10993.957 
    1700    1191.4751   -10220.969            0   -9851.4982    10893.422 
    1800    1200.3588   -10214.141            0   -9841.9153    10974.644 
    1900    1229.2938   -10213.745            0   -9832.5472    11239.191 
    2000    1229.7907   -10222.457            0    -9841.105    11243.735 
    2100    1184.4003   -10219.855            0   -9852.5788    10828.739 
    2200    1202.1868   -10227.094            0   -9854.3015    10991.357 
    2300    1189.2776   -10224.681            0   -9855.8915    10873.331 
    2400    1187.8243   -10225.687            0    -9857.348    10860.044 
    2500    1218.8206   -10227.716            0   -9849.7655    11143.437 
    2600    1194.2259   -10213.488            0   -9843.1647    10918.572 
    2700    1200.6248   -10217.525            0   -9845.2175    10977.076 
    2800    1186.0356   -10227.365            0   -9859.5814     10843.69 
    2900    1201.8966   -10237.591            0   -9864.8886    10988.704 
    3000    1177.9294   -10234.906            0   -9869.6361    10769.577 
    3100    1186.0211   -10233.562            0   -9865.7832    10843.558 
    3200     1186.271    -10228.24            0   -9860.3834    10845.842 
    3300    1217.2316   -10234.199            0   -9856.7417    11128.909 
    3400    1208.4784   -10232.255            0   -9857.5117    11048.881 
    3500    1191.5044   -10232.927            0   -9863.4471     10893.69 
    3600    1171.9341   -10228.302            0   -9864.8907    10714.763 
    3700    1195.2373   -10224.244            0   -9853.6069    10927.819 
    3800    1201.0457   -10226.583            0   -9854.1446    10980.924 
    3900    1203.4822   -10238.983            0   -9865.7895    11003.201 
    4000    1192.8618   -10243.641            0     -9873.74    10906.101 
    4100    1194.6391   -10242.343            0   -9871.8911     10922.35 
    4200    1195.8948   -10238.553            0   -9867.7116    10933.831 
    4300    1197.0358   -10232.739            0   -9861.5443    10944.263 
    4400    1187.9748   -10225.034            0    -9856.649     10861.42 
    4500    1179.3472   -10225.114            0   -9859.4045    10782.539 
    4600     1181.266   -10231.963            0   -9865.6581    10800.083 
    4700    1184.2297   -10241.738            0   -9874.5145    10827.179 
    4800    1155.7028   -10231.273            0   -9872.8957    10566.363 
    4900    1211.5844   -10234.406            0   -9858.6999    11077.277 
    5000    1220.7739   -10231.563            0   -9853.0075    11161.296 
    5100    1210.0256   -10228.347            0   -9853.1237    11063.026 
    5200    1194.0581   -10230.139            0   -9859.8671    10917.039 
    5300     1161.088   -10236.981            0   -9876.9338    10615.599 
    5400    1181.6385   -10239.511            0   -9873.0905    10803.488 
    5500    1206.2771   -10238.118            0   -9864.0576    11028.754 
    5600    1196.0821   -10232.808            0   -9861.9084    10935.543 
    5700    1213.5969   -10234.868            0   -9858.5377    11095.677 
    5800    1200.9881    -10229.74            0   -9857.3197    10980.398 
    5900    1193.4555    -10229.93            0    -9859.845    10911.528 
    6000    1196.4275   -10236.812            0   -9865.8052    10938.701 
    6100    1172.2996   -10234.639            0   -9871.1143    10718.105 
    6200    1193.8242   -10242.189            0   -9871.9904      10914.9 
    6300    1178.8286   -10231.563            0   -9866.0145    10777.798 
    6400     1216.462   -10229.388            0   -9852.1688    11121.873 
    6500    1219.7401   -10227.097            0   -9848.8613    11151.843 
    6600    1201.1669   -10229.199            0   -9856.7233    10982.033 
    6700    1198.8222   -10238.438            0   -9866.6896    10960.595 
    6800    1185.5444   -10236.095            0   -9868.4632      10839.2 
    6900    1208.8228   -10240.064            0   -9865.2144    11052.029 
    7000    1238.6009   -10244.917            0   -9860.8329    11324.285 
    7100     1179.242   -10221.823            0   -9856.1461    10781.578 
    7200    1229.9192   -10225.619            0   -9844.2272    11244.909 
    7300    1197.0206   -10212.269            0   -9841.0783    10944.124 
    7400    1185.5005    -10224.67            0    -9857.052    10838.798 
    7500     1190.406   -10231.213            0   -9862.0738    10883.648 
    7600    1206.9174   -10232.748            0   -9858.4889    11034.609 
    7700     1206.454   -10227.767            0   -9853.6511    11030.372 
    7800    1237.1378   -10227.223            0   -9843.5923    11310.908 
    7900    1214.1459   -10222.169            0   -9845.6683    11100.697 
    8000    1154.7903   -10220.812            0   -9862.7167    10558.021 
    8100    1209.7589   -10237.419            0   -9862.2786    11060.588 
    8200    1183.9584   -10226.515            0    -9859.375    10824.699 
    8300    1210.2345   -10222.453            0   -9847.1654    11064.936 
    8400    1217.0843   -10218.266            0   -9840.8538    11127.562 
    8500    1217.0098   -10223.544            0   -9846.1552    11126.881 
    8600     1210.158   -10229.632            0   -9854.3678    11064.237 
    8700    1196.4529   -10231.706            0   -9860.6919    10938.933 
    8800    1149.8018   -10222.204            0   -9865.6562    10512.412 
    8900    1221.9855   -10234.765            0   -9855.8329    11172.373 
    9000     1220.517   -10222.785            0   -9844.3088    11158.947 
    9100    1217.5358   -10222.976            0   -9845.4237     11131.69 
    9200    1188.0154    -10231.69            0   -9863.2927    10861.791 
    9300    1189.0715   -10235.745            0   -9867.0199    10871.447 
    9400    1183.1122   -10231.638            0   -9864.7604    10816.962 
    9500    1262.2833   -10248.621            0   -9857.1933    11540.807 
    9600    1204.3284   -10237.922            0   -9864.4655    11010.938 
    9700    1182.5877   -10245.792            0   -9879.0773    10812.167 
    9800    1183.7052   -10243.729            0   -9876.6683    10822.384 
    9900     1199.019   -10236.531            0   -9864.7214    10962.395 
   10000    1213.6013   -10236.191            0   -9859.8596    11095.718 
   10100    1251.7817    -10249.89            0   -9861.7183    11444.794 
   10200    1174.7748   -10233.773            0   -9869.4815    10740.735 
   10300    1183.7552   -10242.115            0   -9875.0386    10822.841 
   10400    1166.0132   -10251.026            0   -9889.4514    10660.629 
   10500    1172.5782   -10247.862            0   -9884.2516    10720.652 
   10600    1201.9941   -10242.965            0   -9870.2324    10989.596 
   10700    1194.9519   -10234.117            0   -9863.5685     10925.21 
   10800    1211.2152    -10234.03            0   -9858.4384    11073.902 
   10900    1200.5873   -10233.946            0   -9861.6501    10976.733 
   11000    1179.6205   -10243.175            0   -9877.3803    10785.038 
   11100    1172.8274   -10243.379            0   -9879.6909    10722.931 
   11200    1192.8626   -10241.048            0    -9871.147    10906.108 
   11300    1226.9721   -10244.472            0   -9863.9937    11217.965 
   11400    1197.4092   -10235.771            0   -9864.4608    10947.676 
   11500    1214.2386   -10245.767            0   -9869.2372    11101.544 
   11600    1204.1995   -10244.984            0    -9871.568    11009.759 
   11700    1193.0052   -10241.196            0   -9871.2513    10907.411 
   11800    1199.5343    -10236.48            0   -9864.5108    10967.106 
   11900    1242.7271   -10232.731            0   -9847.3679    11362.009 
   12000    1226.7918   -10238.923            0   -9858.5007    11216.316 
   12100    1210.9934   -10247.123            0   -9871.5999    11071.874 
   12200    1197.0658   -10250.027            0   -9878.8231    10944.537 
   12300    1171.0218    -10245.89            0   -9882.7615    10706.422 
   12400    1200.1418   -10243.023            0   -9870.8653    10972.661 
   12500    1182.8398   -10230.478            0   -9863.6847    10814.472 
   12600     1199.177   -10239.944            0   -9868.0854     10963.84 
   12700     1190.682   -10242.061            0   -9872.8359    10886.171 
   12800    1182.7928   -10240.005            0   -9873.2266    10814.042 
   12900    1209.0936   -10245.398            0   -9870.4645    11054.505 
   13000    1216.6139   -10245.918            0    -9868.652    11123.262 
   13100    1219.8563   -10250.417            0   -9872.1455    11152.907 
   13200    1170.7592   -10246.542            0   -9883.4953    10704.021 
   13300     1190.242    -10255.82            0   -9886.7321    10882.148 
   13400    1165.3297   -10244.048            0   -9882.6848     10654.38 
   13500    1189.7121    -10235.62            0   -9866.6962    10877.304 
   13600    1218.6535   -10245.331            0   -9867.4326    11141.909 
   13700    1209.4451   -10252.467            0   -9877.4238    11057.719 
   13800    1195.3422   -10253.252            0   -9882.5822    10928.778 
   13900    1192.0883   -10249.963            0   -9880.3022    10899.029 
   14000    1236.5908   -10245.337            0   -9861.8762    11305.906 
   14100    1222.3851   -10238.426            0   -9859.3702    11176.026 
   14200    1228.8661   -10245.064            0   -9863.9991    11235.281 
   14300    1199.0793   -10246.005            0   -9874.1763    10962.946 
   14400    1189.8886   -10247.276            0   -9878.2978    10878.917 
   14500    1182.7791   -10241.384            0   -9874.6098    10813.917 
   14600    1233.9708   -10250.938            0   -9868.2892    11281.952 
   14700    1222.7734   -10242.371            0   -9863.1951    11179.577 
   14800    1193.6123   -10236.475            0   -9866.3413    10912.962 
   14900    1197.0435   -10250.167            0   -9878.9697    10944.333 
   15000    1196.9034   -10255.173            0    -9884.019    10943.052 
   15100    1229.4681   -10263.228            0   -9881.9755    11240.785 
   15200    1202.8542   -10242.248            0   -9869.2489    10997.459 
   15300    1243.1686   -10243.943            0   -9858.4429    11366.046 
   15400    1206.8449   -10240.875            0   -9866.6383    11033.945 
   15500    1202.0428   -10248.801            0   -9876.0532    10990.041 
   15600    1181.7224   -10247.657            0   -9881.2109    10804.255 
   15700     1203.029   -10251.243            0   -9878.1898    10999.057 
   15800     1215.831   -10240.969            0   -9863.9455    11116.103 
   15900    1242.5248   -10241.346            0   -9856.0449     11360.16 
   16000    1209.7376    -10243.19            0   -9868.0567    11060.393 
   16100    1213.3876   -10250.156            0   -9873.8907    11093.765 
   16200    1216.8002    -10256.28            0   -9878.9565    11124.965 
   16300    1180.6788   -10251.992            0   -9885.8695    10794.714 
   16400    1169.8667   -10253.901            0   -9891.1314    10695.861 
   16500    1204.6832   -10253.523            0   -9879.9571    11014.182 
   16600    1231.2288   -10250.801            0   -9869.0028    11256.883 
   16700    1221.9784    -10246.66            0   -9867.7306    11172.309 
   16800    1196.6492    -10243.96            0   -9872.8849    10940.728 
   16900    1177.9749    -10252.72            0   -9887.4355    10769.993 
   17000    1165.4666   -10251.838            0   -9890.4324    10655.632 
   17100    1217.6875    -10261.11            0   -9883.5114    11133.077 
   17200    1175.7191   -10242.424            0   -9877.8391    10749.368 
   17300    1229.1454   -10254.765            0   -9873.6127    11237.835 
   17400    1168.0191   -10238.534            0   -9876.3372    10678.968 
   17500    1190.7808   -10244.413            0   -9875.1578    10887.075 
   17600    1221.9372    -10256.54            0   -9877.6233    11171.931 
   17700     1182.529   -10252.271            0   -9885.5751     10811.63 
   17800    1178.6692   -10252.485            0   -9886.9858     10776.34 
   17900    1225.9389   -10256.681            0    -9876.523    11208.518 
   18000    1220.7858   -10247.143            0   -9868.5829    11161.405 
   18100    1199.9188   -10236.587            0    -9864.498    10970.621 
   18200    1228.8739   -10242.624            0   -9861.5563    11235.353 
   18300    1221.9172   -10251.047            0   -9872.1364    11171.748 
   18400    1194.7952   -10251.914            0   -9881.4139    10923.777 
   18500    1188.5877   -10249.839            0   -9881.2637    10867.023 
   18600    1219.8302   -10251.509            0   -9873.2454    11152.668 
   18700    1206.6667    -10240.38            0   -9866.1985    11032.317 
   18800    1222.0867     -10234.2            0   -9855.2371    11173.298 
   18900    1200.7669   -10235.572            0   -9863.2204    10978.375 
   19000    1209.3405   -10250.165            0   -9875.1545    11056.762 
   19100    1193.5727   -10249.327            0   -9879.2061      10912.6 
   19200    1193.2748   -10249.603            0   -9879.5739    10909.876 
   19300    1201.2719   -10245.177            0   -9872.6682    10982.993 
   19400    1219.3722   -10239.652            0    -9861.531     11148.48 
   19500    1215.7123   -10242.013            0   -9865.0263    11115.018 
   19600    1185.5406   -10248.746            0   -9881.1158    10839.165 
   19700    1183.4352   -10256.174            0   -9889.1964    10819.915 
   19800    1187.3211   -10251.692            0   -9883.5099    10855.443 
   19900     1202.843   -10248.131            0   -9875.1352    10997.357 
   20000    1207.1571    -10246.57            0   -9872.2368      11036.8 
   20100     1184.714   -10244.206            0   -9876.8321    10831.607 
   20200    1162.0769   -10251.102            0   -9890.7472    10624.641 
   20300    1208.7742   -10258.597            0   -9883.7617    11051.584 
   20400    1185.7817   -10242.517            0   -9874.8115    10841.369 
   20500    1211.0102   -10246.685            0   -9871.1562    11072.028 
   20600    1212.0218   -10248.334            0    -9872.492    11081.277 
   20700    1197.4105   -10246.982            0   -9875.6713    10947.689 
   20800    1212.6186   -10253.679            0   -9877.6516    11086.733 
   20900    1208.2897   -10257.624            0   -9882.9393    11047.155 
   21000    1183.1022   -10255.697            0   -9888.8231    10816.871 
   21100    1168.1239   -10248.406            0   -9886.1768    10679.927 
   21200    1207.4848   -10247.462            0   -9873.0268    11039.796 
   21300    1183.0928   -10237.526            0   -9870.6551    10816.785 
   21400    1206.4038   -10242.976            0   -9868.8757    11029.913 
   21500    1174.6647   -10241.789            0   -9877.5313    10739.729 
   21600    1168.1701   -10249.591            0    -9887.347    10680.349 
   21700    1218.7056   -10266.772            0   -9888.8578    11142.386 
   21800    1211.4769   -10257.336            0   -9881.6629    11076.295 
   21900    1223.3664   -10250.904            0   -9871.5444    11184.998 
   22000    1200.8186   -10245.149            0   -9872.7815    10978.848 
   22100    1172.8987   -10245.767            0   -9882.0565    10723.582 
   22200    1180.9136   -10250.522            0    -9884.327    10796.861 
   22300    1184.0387   -10248.506            0   -9881.3413    10825.433 
   22400    1222.2312   -10253.413            0   -9874.4052    11174.619 
   22500    1217.5863   -10249.618            0   -9872.0506    11132.152 
   22600    1203.4145   -10253.645            0   -9880.4716    11002.582 
   22700    1183.0386   -10257.372            0   -9890.5176    10816.289 
   22800    1201.8137   -10262.333            0   -9889.6565    10987.946 
   22900    1201.9863   -10246.729            0   -9873.9985    10989.525 
   23000    1224.2057   -10245.951            0    -9866.331    11192.672 
   23100    1216.3076   -10249.692            0   -9872.5214    11120.461 
   23200    1187.5389   -10252.483            0   -9884.2334    10857.434 
   23300    1204.0577   -10257.881            0   -9884.5085    11008.463 
   23400    1162.5628   -10242.564            0   -9882.0594    10629.083 
   23500    1225.3995   -10253.427            0   -9873.4364    11203.586 
   23600    1229.7214   -10253.595            0   -9872.2642    11243.101 
   23700    1185.3811   -10255.855            0   -9888.2746    10837.706 
   23800     1191.963   -10260.673            0    -9891.051    10897.883 
   23900    1202.2756   -10256.544            0   -9883.7242    10992.169 
   24000    1231.0038   -10254.339            0   -9872.6106    11254.826 
   24100     1200.465   -10241.606            0   -9869.3482    10975.615 
   24200    1188.6234   -10246.525            0   -9877.9391    10867.349 
   24300    1193.1581   -10262.841            0   -9892.8484    10908.809 
   24400    1206.2799   -10263.394            0   -9889.3321    11028.779 
   24500    1185.3442   -10249.331            0   -9881.7616    10837.369 
   24600    1221.1492   -10251.859            0    -9873.187    11164.727 
   24700    1206.6199   -10248.963            0    -9874.796    11031.889 
   24800    1176.4721   -10252.156            0    -9887.338    10756.253 
   24900    1200.7132   -10271.312            0   -9898.9772    10977.885 
   25000    1188.5033   -10265.808            0   -9897.2586    10866.251 
   25100    1200.0707   -10260.504            0   -9888.3679     10972.01 
   25200     1180.358   -10250.988            0   -9884.9651    10791.781 
   25300     1200.969   -10253.769            0    -9881.354    10980.223 
   25400    1216.1887   -10259.115            0   -9881.9811    11119.374 
   25500     1190.098   -10263.068            0   -9894.0248    10880.832 
   25600    1184.7478   -10267.669            0   -9900.2845    10831.916 
   25700    1193.7283   -10261.388            0   -9891.2184    10914.023 
   25800    1232.9304   -10259.047            0   -9876.7212    11272.441 
   25900    1214.7249    -10252.16            0   -9875.4799    11105.991 
   26000    1186.0185   -10249.312            0    -9881.534    10843.534 
   26100    1186.5546   -10257.205            0   -9889.2603    10848.435 
   26200    1135.9223    -10255.12            0   -9902.8762    10385.515 
   26300    1202.9198   -10272.294            0   -9899.2744    10998.059 
   26400    1204.4929   -10256.153            0    -9882.646    11012.442 
   26500    1226.5059   -10259.354            0    -9879.021    11213.703 
   26600    1232.0085   -10262.386            0    -9880.346    11264.011 
   26700    1200.2269   -10259.045            0   -9886.8604    10973.439 
   26800     1193.435   -10258.526            0    -9888.448    10911.342 
   26900    1196.1621   -10249.503            0   -9878.5789    10936.275 
   27000     1233.207   -10249.067            0    -9866.656    11274.969 
   27100    1227.8856   -10249.178            0   -9868.4164    11226.316 
   27200    1180.5805   -10246.821            0   -9880.7291    10793.815 
   27300    1203.4476    -10256.01            0   -9882.8266    11002.884 
   27400    1200.4956   -10252.557            0   -9880.2889    10975.895 
   27500    1210.1342   -10253.343            0   -9878.0861    11064.019 
   27600    1214.8463   -10254.896            0   -9878.1776    11107.101 
   27700    1208.8275    -10255.15            0   -9880.2989    11052.072 
   27800    1166.1893   -10249.637            0   -9888.0072    10662.239 
   27900    1169.6461   -10253.878            0   -9891.1764    10693.844 
   28000    1190.1706   -10247.967            0   -9878.9007    10881.496 
   28100    1230.5484    -10249.29            0    -9867.703    11250.662 
   28200    1224.4741   -10250.363            0   -9870.6599    11195.126 
   28300    1191.2711   -10248.093            0   -9878.6854    10891.558 
   28400     1185.884   -10246.566            0   -9878.8296    10842.304 
   28500    1204.6485   -10252.495            0   -9878.9395    11013.865 
   28600    1181.3236   -10254.686            0   -9888.3629    10800.609 
   28700    1168.2209   -10257.133            0   -9894.8733    10680.814 
   28800    1192.4811    -10255.49            0   -9885.7077     10902.62 
   28900     1205.296   -10248.782            0   -9875.0258    11019.785 
   29000    1204.6027   -10245.532            0   -9871.9908    11013.445 
   29100    1190.6394   -10242.822            0   -9873.6108    10885.782 
   29200    1206.6224   -10254.282            0   -9880.1146    11031.911 
   29300    1183.5015   -10259.256            0   -9892.2579    10820.521 
   29400    1194.8022   -10262.445            0    -9891.943    10923.841 
   29500    1184.7301   -10247.252            0    -9879.873    10831.754 
   29600    1206.4543   -10250.495            0   -9876.3796    11030.375 
   29700    1191.8181   -10247.897            0   -9878.3205    10896.559 
   29800    1197.1742   -10254.421            0   -9883.1831    10945.528 
   29900    1175.3054   -10251.423            0   -9886.9664    10745.586 
   30000    1205.1836    -10253.87            0   -9880.1486    11018.757 
   30100     1231.754   -10250.022            0   -9868.0616    11261.685 
   30200     1196.904   -10242.001            0   -9870.8469    10943.058 
   30300    1214.6583   -10258.614            0   -9881.9547    11105.382 
   30400    1191.9059   -10257.876            0   -9888.2718    10897.361 
   30500    1176.4505   -10255.061            0    -9890.249    10756.056 
   30600    1231.7855   -10255.447            0   -9873.4766    11261.972 
   30700     1205.731   -10239.312            0   -9865.4203    11023.761 
   30800    1223.3069   -10251.519            0   -9872.1771    11184.454 
   30900    1196.2698   -10253.952            0   -9882.9948    10937.259 
   31000    1161.6993   -10246.468            0   -9886.2305    10621.188 
   31100    1217.8746    -10257.99            0   -9880.3333    11134.788 
   31200    1224.1766   -10248.269            0   -9868.6574    11192.406 
   31300    1235.7701   -10236.358            0   -9853.1522    11298.403 
   31400    1240.4155    -10235.13            0   -9850.4831    11340.875 
   31500    1203.7037   -10245.289            0   -9872.0265    11005.226 
   31600    1201.6827    -10253.89            0   -9881.2537    10986.749 
   31700    1190.0139   -10257.495            0   -9888.4776    10880.063 
   31800    1186.2613    -10256.93            0   -9889.0759    10845.754 
   31900    1193.9842   -10249.457            0   -9879.2084    10916.362 
   32000    1231.1087   -10251.346            0   -9869.5849    11255.785 
   32100    1204.5905   -10246.734            0   -9873.1968    11013.334 
   32200    1181.8653   -10258.905            0   -9892.4147    10805.562 
   32300    1176.1481   -10254.774            0   -9890.0567    10753.291 
   32400    1191.6906   -10248.995            0   -9879.4577    10895.393 
   32500    1202.5462   -10247.478            0   -9874.5739    10994.644 
   32600    1224.3549   -10250.447            0   -9870.7808    11194.036 
   32700    1213.9392   -10257.278            0   -9880.8417    11098.807 
   32800    1147.2097   -10250.092            0   -9894.3477    10488.713 
   32900    1182.8457   -10256.364            0   -9889.5696    10814.525 
   33000    1205.4433   -10253.453            0   -9879.6511    11021.131 
   33100    1195.0108   -10242.307            0   -9871.7397    10925.748 
   33200    1218.7104   -10248.681            0   -9870.7645     11142.43 
   33300    1228.7442   -10253.741            0   -9872.7137    11234.166 
   33400    1222.2079   -10257.088            0   -9878.0872    11174.406 
   33500    1180.3891   -10250.187            0   -9884.1537    10792.066 
   33600    1227.6069   -10263.598            0   -9882.9228    11223.768 
   33700    1194.9606    -10249.48            0    -9878.929     10925.29 
   33800    1194.7086   -10244.175            0   -9873.7015    10922.985 
   33900    1235.2704   -10250.719            0   -9867.6675    11293.835 
   34000    1195.8444   -10244.061            0   -9873.2351     10933.37 
   34100    1198.2195   -10255.301            0   -9883.7388    10955.085 
   34200    1205.3704   -10263.628            0   -9889.8485    11020.465 
   34300    1184.1133   -10259.635            0    -9892.447    10826.115 
   34400    1175.9955   -10240.498            0   -9875.8276    10751.896 
   34500    1222.7083   -10246.566            0   -9867.4106    11178.982 
   34600    1201.0339    -10243.44            0   -9871.0057    10980.817 
   34700     1178.872   -10249.897            0    -9884.335    10778.195 
   34800    1158.5865   -10248.525            0   -9889.2534    10592.729 
   34900    1204.0421   -10256.878            0   -9883.5104     11008.32 
   35000    1197.1162   -10250.181            0   -9878.9608    10944.998 
   35100    1224.9725    -10254.54            0   -9874.6821    11199.682 
   35200    1193.5583   -10249.945            0   -9879.8287    10912.469 
   35300    1187.2471   -10249.724            0   -9881.5642    10854.766 
   35400    1190.5706   -10252.489            0   -9883.2992    10885.153 
   35500    1177.6877   -10245.579            0   -9880.3839    10767.367 
   35600    1209.3143   -10245.956            0   -9870.9536    11056.523 
   35700    1231.1629   -10245.961            0   -9864.1834     11256.28 
   35800    1177.6636   -10242.443            0   -9877.2557    10767.146 
   35900    1194.1303   -10255.512            0   -9885.2178    10917.698 
   36000    1167.6697   -10246.541            0   -9884.4524    10675.775 
   36100    1238.0255   -10261.618            0   -9877.7126    11319.023 
   36200    1216.0951   -10252.187            0   -9875.0814    11118.518 
   36300    1214.2106   -10247.449            0   -9870.9285    11101.289 
   36400    1193.2627   -10242.747            0   -9872.7222    10909.766 
   36500    1190.8899   -10251.478            0   -9882.1884    10888.072 
   36600    1184.7063   -10257.377            0   -9890.0053    10831.537 
   36700    1175.7356   -10252.217            0    -9887.627    10749.519 
   36800    1194.4157   -10240.157            0   -9869.7748    10920.308 
   36900    1222.3927   -10250.723            0   -9871.6647    11176.096 
   37000    1201.5251   -10253.979            0   -9881.3915    10985.308 
   37100    1189.1807   -10257.182            0   -9888.4225    10872.446 
   37200    1233.7135     -10264.9            0   -9882.3319      11279.6 
   37300    1209.7297   -10246.551            0   -9871.4195    11060.321 
   37400    1231.1557   -10241.681            0   -9859.9053    11256.214 
   37500    1227.1409   -10236.606            0   -9856.0761    11219.508 
   37600    1220.1938    -10247.68            0   -9869.3036    11155.992 
   37700    1197.6382   -10253.048            0   -9881.6661    10949.771 
   37800    1179.8052   -10253.575            0   -9887.7234    10786.727 
   37900    1203.1688   -10259.308            0   -9886.2109    11000.336 
   38000    1179.6886   -10242.701            0   -9876.8855    10785.661 
   38100    1241.8639   -10249.161            0   -9864.0652    11354.118 
   38200    1205.3124   -10243.879            0   -9870.1175    11019.934 
   38300    1191.7294   -10247.311            0   -9877.7611    10895.747 
   38400    1174.2929   -10245.668            0   -9881.5255    10736.329 
   38500     1195.108   -10254.971            0   -9884.3736    10926.637 
   38600    1179.9278   -10252.278            0   -9886.3885    10787.848 
   38700    1204.2959   -10258.551            0   -9885.1045    11010.641 
   38800    1212.7471     -10259.5            0   -9883.4331    11087.908 
   38900    1201.2696   -10252.732            0   -9880.2246    10982.972 
   39000    1193.8479   -10245.559            0   -9875.3522    10915.116 
   39100     1202.243   -10246.752            0   -9873.9423    10991.871 
   39200    1205.1293   -10249.025            0   -9875.3207     11018.26 
   39300    1190.8662   -10256.423            0   -9887.1411    10887.856 
   39400    1187.1342   -10260.097            0   -9891.9722    10853.734 
   39500    1189.3715   -10251.415            0   -9882.5968     10874.19 
   39600    1227.7075   -10251.234            0   -9870.5283    11224.688 
   39700    1211.1948    -10248.67            0   -9873.0844    11073.716 
   39800    1214.2175   -10254.878            0   -9878.3551    11101.351 
   39900    1174.3664   -10253.639            0   -9889.4734    10737.001 
   40000    1211.7548   -10266.119            0   -9890.3599    11078.836 
   40100    1248.5235   -10259.721            0   -9872.5597    11415.005 
   40200    1224.1046   -10245.854            0   -9866.2657    11191.747 
   40300    1230.1576   -10253.655            0   -9872.1894    11247.089 
   40400    1201.4725   -10254.584            0   -9882.0133    10984.827 
   40500     1200.578   -10252.713            0   -9880.4196    10976.648 
   40600    1198.0065   -10247.687            0   -9876.1906    10953.138 
   40700    1217.8213   -10251.751            0   -9874.1106    11134.301 
   40800    1181.8717   -10257.055            0   -9890.5621     10805.62 
   40900    1175.7329   -10262.958            0    -9898.369    10749.495 
   41000    1162.2263   -10251.007            0   -9890.6062    10626.006 
   41100    1214.4003   -10255.958            0   -9879.3784    11103.023 
   41200    1158.2205   -10239.499            0   -9880.3405    10589.382 
   41300    1227.0196   -10255.727            0   -9875.2338    11218.399 
   41400    1232.9538   -10253.917            0   -9871.5841    11272.654 
   41500    1192.0336   -10245.693            0   -9876.0496    10898.529 
   41600    1174.7734   -10249.246            0   -9884.9546    10740.722 
   41700     1176.653   -10252.171            0   -9887.2966    10757.907 
   41800     1202.133   -10249.454            0   -9876.6786    10990.865 
   41900    1192.4767   -10235.479            0   -9865.6983     10902.58 
   42000    1211.4822   -10241.474            0   -9865.7989    11076.344 
   42100    1215.6791   -10246.692            0   -9869.7163    11114.715 
   42200    1209.7505   -10248.239            0   -9873.1016    11060.511 
   42300    1211.0711   -10252.263            0   -9876.7155    11072.585 
   42400    1176.4204   -10249.938            0   -9885.1353     10755.78 
   42500     1145.636   -10253.583            0   -9898.3269    10474.324 
   42600    1140.5445    -10252.55            0   -9898.8726    10427.774 
   42700    1219.0098   -10257.949            0   -9879.9403    11145.167 
   42800    1204.1283   -10247.103            0   -9873.7083    11009.108 
   42900    1184.5963    -10245.16            0   -9877.8227    10830.531 
   43000    1187.8851   -10253.389            0   -9885.0313      10860.6 
   43100     1214.258   -10262.673            0   -9886.1374    11101.722 
   43200    1183.3386   -10247.268            0   -9880.3201    10819.032 
   43300    1232.0374   -10246.597            0   -9864.5479    11264.276 
   43400    1208.0347   -10240.021            0   -9865.4159    11044.824 
   43500    1220.7078   -10253.055            0   -9874.5192    11160.691 
   43600    1204.4264   -10256.513            0    -9883.026    11011.833 
   43700    1167.6695   -10246.578            0   -9884.4895    10675.773 
   43800    1189.6655   -10249.436            0   -9880.5261    10876.877 
   43900    1202.4169   -10251.112            0   -9878.2487    10993.461 
   44000    1206.3017   -10249.726            0   -9875.6574    11028.979 
   44100    1202.4566   -10247.144            0   -9874.2677    10993.824 
   44200    1204.6509   -10250.493            0   -9876.9369    11013.886 
   44300    1201.8295   -10257.083            0   -9884.4016    10988.091 
   44400    1187.0704   -10258.103            0   -9889.9978    10853.151 
   44500    1174.1722   -10250.543            0   -9886.4379    10735.225 
   44600    1216.6897   -10249.685            0   -9872.3951    11123.954 
   44700    1221.8144   -10244.944            0   -9866.0657    11170.809 
   44800    1212.4679   -10245.615            0   -9869.6349    11085.356 
   44900    1198.7356   -10247.661            0   -9875.9391    10959.804 
   45000    1219.0579   -10256.585            0   -9878.5611    11145.607 
   45100    1188.8238   -10250.247            0   -9881.5987    10869.182 
   45200    1207.9093   -10256.918            0   -9882.3512    11043.677 
   45300    1183.5433   -10259.867            0   -9892.8562    10820.904 
   45400     1181.711    -10266.49            0   -9900.0474    10804.151 
   45500    1184.6039   -10257.556            0   -9890.2158    10830.601 
   45600    1203.0023   -10253.163            0    -9880.118    10998.813 
   45700    1211.8805   -10256.343            0   -9880.5446    11079.985 
   45800    1203.1308   -10255.169            0    -9882.084    10999.988 
   45900    1209.9937   -10261.193            0   -9885.9803    11062.734 
   46000     1172.861   -10253.465            0   -9889.7664    10723.238 
   46100     1191.712   -10253.918            0   -9884.3739    10895.589 
   46200    1201.7798   -10246.309            0   -9873.6426    10987.636 
   46300    1237.3372   -10253.787            0   -9870.0949    11312.731 
   46400    1213.3583   -10257.896            0   -9881.6391    11093.496 
   46500    1155.9506   -10251.156            0   -9892.7017    10568.629 
   46600    1179.9598   -10254.486            0   -9888.5866    10788.141 
   46700    1178.9051   -10246.086            0   -9880.5133    10778.497 
   46800    1220.7183   -10250.695            0   -9872.1566    11160.787 
   46900    1217.0227   -10249.936            0   -9872.5428    11126.999 
   47000    1165.5199   -10244.719            0   -9883.2968    10656.119 
   47100    1180.5213   -10260.545            0   -9894.4711    10793.274 
   47200    1203.4755   -10265.632            0     -9892.44    11003.139 
   47300    1216.3251   -10252.017            0   -9874.8402    11120.621 
   47400    1251.8019   -10255.915            0   -9867.7374    11444.979 
   47500    1211.4476   -10251.129            0    -9875.465    11076.027 
   47600      1195.09   -10253.987            0   -9883.3958    10926.473 
   47700    1208.4398   -10259.355            0   -9884.6242    11048.528 
   47800    1210.0149   -10252.282            0   -9877.0626    11062.928 
   47900    1229.0474   -10248.673            0   -9867.5513    11236.939 
   48000    1223.6191   -10248.532            0   -9869.0939    11187.309 
   48100    1209.6439   -10257.489            0   -9882.3846    11059.536 
   48200    1191.8222   -10258.292            0   -9888.7138    10896.596 
   48300    1206.2254   -10260.139            0   -9886.0941    11028.281 
   48400    1207.9632   -10255.764            0   -9881.1802     11044.17 
   48500    1192.9717   -10246.039            0   -9876.1044    10907.105 
   48600    1205.8494    -10247.32            0   -9873.3923    11024.844 
   48700    1208.6227   -10249.036            0   -9874.2482    11050.199 
   48800     1200.796   -10250.345            0   -9877.9838    10978.642 
   48900     1201.091   -10256.361            0   -9883.9089    10981.339 
   49000    1180.0875   -10257.071            0    -9891.132    10789.308 
   49100    1172.9552   -10255.653            0   -9891.9257    10724.099 
   49200    1198.7277   -10250.382            0   -9878.6623    10959.732 
   49300    1205.4773   -10244.981            0   -9871.1689    11021.442 
   49400     1210.676   -10250.389            0    -9874.964    11068.973 
   49500    1185.5121   -10251.467            0   -9883.8453    10838.904 
   49600    1171.3191   -10252.064            0   -9888.8442     10709.14 
   49700    1187.9681   -10256.536            0   -9888.1531    10861.358 
   49800    1188.0379   -10242.873            0   -9874.4683    10861.996 
   49900    1220.5715   -10245.271            0   -9866.7773    11159.445 
   50000    1223.8265   -10253.071            0   -9873.5687    11189.205 
Loop time of 8150.41 on 1 procs for 50000 steps with 2400 atoms

Performance: 0.530 ns/day, 45.280 hours/ns, 6.135 timesteps/s
99.8% CPU use with 1 MPI tasks x 1 OpenMP threads

MPI task timing breakdown:
Section |  min time  |  avg time  |  max time  |%varavg| %total
---------------------------------------------------------------
Pair    | 8125.1     | 8125.1     | 8125.1     |   0.0 | 99.69
Neigh   | 20.094     | 20.094     | 20.094     |   0.0 |  0.25
Comm    | 1.9141     | 1.9141     | 1.9141     |   0.0 |  0.02
Output  | 0.014275   | 0.014275   | 0.014275   |   0.0 |  0.00
Modify  | 2.5191     | 2.5191     | 2.5191     |   0.0 |  0.03
Other   |            | 0.8047     |            |       |  0.01

Nlocal:        2400.00 ave        2400 max        2400 min
Histogram: 1 0 0 0 0 0 0 0 0 0
Nghost:        4729.00 ave        4729 max        4729 min
Histogram: 1 0 0 0 0 0 0 0 0 0
Neighs:         0.00000 ave           0 max           0 min
Histogram: 1 0 0 0 0 0 0 0 0 0
FullNghs:      218122.0 ave      218122 max      218122 min
Histogram: 1 0 0 0 0 0 0 0 0 0

Total # of neighbors = 218122
Ave neighs/atom = 90.884167
Neighbor list builds = 1389
Dangerous builds = 0
Setting up Verlet run ...
  Unit style    : metal
  Current step  : 50000
  Time step     : 0.001
Per MPI rank memory allocation (min/avg/max) = 4.230 | 4.230 | 4.230 Mbytes
Step Temp E_pair TotEng f_3 v_tdiff 
   50000         1200   -10253.071   -9880.9572            0            0 
   51000    1172.7489    -10244.61   -9880.9467    50.148647  0.042953845 
   52000    1201.2262   -10253.454   -9880.9598    92.107381  0.061327359 
   53000    1161.4736    -10241.12   -9880.9528    133.11653  0.057231088 
   54000    1199.1279   -10252.807    -9880.963    173.80526  0.073833876 
   55000    1165.4683   -10242.354   -9880.9485    214.52304  0.061076155 
   56000     1167.466   -10242.994   -9880.9687    254.91485  0.060034844 
   57000    1167.6663   -10243.057   -9880.9691    294.59803  0.068426082 
   58000    1117.1983   -10227.384   -9880.9461     332.9375  0.073551474 
   59000    1141.7272       -10235    -9880.956    371.07899  0.063699221 
   60000    1115.9906   -10227.002   -9880.9387    409.45649  0.068492244 
   61000    1143.9062   -10235.668   -9880.9483     448.3099  0.070804107 
   62000    1119.1001   -10227.981    -9880.954    486.36608  0.064803602 
   63000    1122.8457   -10229.134   -9880.9449    526.36388  0.072786523 
   64000    1130.4589   -10231.479   -9880.9297     565.7423  0.066408904 
   65000    1153.7425   -10238.709   -9880.9391    603.48732  0.071801584 
   66000    1132.3092   -10232.074   -9880.9507    641.69604  0.069426811 
   67000    1125.0565   -10229.821   -9880.9468    681.86234  0.064293165 
   68000    1110.7056   -10225.376   -9880.9516    720.71159  0.066782363 
   69000    1139.6268   -10234.356   -9880.9638     757.9718  0.068439864 
   70000    1117.4432   -10227.454   -9880.9404     796.2584  0.069109339 
   71000    1122.7855   -10229.104   -9880.9332    835.86528  0.063488585 
   72000    1129.3756   -10231.156   -9880.9424    874.89552  0.073149116 
   73000     1137.219   -10233.571   -9880.9253    912.71033  0.072155462 
   74000    1146.4931   -10236.456   -9880.9342    950.91526   0.07318775 
   75000    1148.9327   -10237.222   -9880.9433    988.05397  0.072110545 
   76000    1144.6994   -10235.888    -9880.922    1028.9487  0.068523737 
   77000    1134.8791   -10232.855    -9880.935    1067.4784  0.079921441 
   78000    1148.7304   -10237.145   -9880.9289    1106.6594  0.065062537 
   79000     1130.665   -10231.534   -9880.9205     1145.646  0.068051914 
   80000    1119.2217   -10227.992    -9880.927    1184.4403  0.072594423 
   81000    1143.6956    -10235.58   -9880.9257    1220.3145  0.066321315 
   82000    1141.0724   -10234.757   -9880.9159    1258.6095  0.073296044 
   83000    1133.8215   -10232.519   -9880.9261    1295.3063  0.071354943 
   84000    1130.0114    -10231.33   -9880.9191    1333.1426  0.079650936 
   85000    1145.4548   -10236.106   -9880.9065    1373.0622  0.069823964 
   86000    1112.9317   -10226.015      -9880.9    1411.4198  0.074086407 
   87000    1108.4263   -10224.619   -9880.9016    1450.5296  0.071983112 
   88000    1139.3468   -10234.229   -9880.9236    1489.2947  0.063074669 
   89000    1121.9021   -10228.794   -9880.8976    1528.8444  0.063003944 
   90000    1106.7252   -10224.102   -9880.9115    1564.6135  0.067951279 
   91000    1092.2273   -10219.608   -9880.9141    1603.3404  0.060592757 
   92000    1125.8319   -10230.029   -9880.9144    1641.7749  0.061957558 
   93000    1131.0193   -10231.621   -9880.8976    1681.2305   0.06461627 
   94000    1120.5438   -10228.373   -9880.8979    1719.4627  0.063358774 
   95000    1111.6189   -10225.604   -9880.8969    1757.0548  0.073770325 
   96000    1135.3152   -10232.959   -9880.9033    1794.6818  0.074429848 
   97000    1136.0286   -10233.187   -9880.9096    1833.5515  0.070845019 
   98000    1108.6644   -10224.692    -9880.901    1871.8303  0.073055586 
   99000    1139.4112   -10234.237   -9880.9115    1909.7028  0.072003027 
  100000    1120.7234   -10228.433   -9880.9018    1946.8479  0.076288615 
  101000    1114.6331   -10226.537   -9880.8949    1986.6637  0.072105265 
  102000    1109.7977    -10225.04   -9880.8972    2025.5763  0.067840873 
  103000    1120.7546   -10228.448   -9880.9077    2064.0682  0.069461319 
  104000    1093.7998   -10220.074   -9880.8923    2101.2997  0.074558598 
  105000    1138.6493   -10233.992   -9880.9026    2139.2713  0.072201801 
  106000    1144.9335   -10235.945   -9880.9071    2176.3505  0.072253754 
  107000    1117.4889   -10227.425    -9880.897    2213.6973  0.075029393 
  108000    1125.5037   -10229.923   -9880.9097    2250.2209  0.075620867 
  109000    1132.6095   -10232.117   -9880.9005     2288.192  0.069748854 
  110000    1145.0157   -10235.958   -9880.8943    2324.0259  0.070205309 
  111000    1098.4141   -10221.504   -9880.8911    2360.3101   0.06780726 
  112000    1142.1314   -10235.072   -9880.9029    2398.5269  0.071458277 
  113000    1114.2858   -10226.427   -9880.8922    2438.4732  0.064718504 
  114000    1120.4257   -10228.325   -9880.8867    2475.6815    0.0672311 
  115000     1121.195   -10228.562   -9880.8854    2514.8217  0.064815372 
  116000    1130.5864    -10231.48   -9880.8912    2553.4444  0.068094133 
  117000    1164.8957   -10242.117   -9880.8887    2591.1668   0.07041303 
  118000    1148.5281   -10237.026   -9880.8734    2630.6799  0.069800793 
  119000    1133.3977   -10232.344   -9880.8827    2669.6696  0.072145787 
  120000    1128.3314    -10230.77   -9880.8795    2708.2294  0.069420198 
  121000    1151.5125   -10237.954   -9880.8757    2745.4243   0.06321971 
  122000    1119.8636   -10228.138   -9880.8735    2783.4111  0.068426659 
  123000    1135.5653   -10233.003   -9880.8697    2822.2924   0.06734969 
  124000    1118.1449   -10227.611   -9880.8801    2859.6976  0.074904427 
  125000    1119.1234   -10227.903   -9880.8686    2899.3904  0.068863295 
  126000    1149.3789    -10237.28   -9880.8635    2936.7648  0.063700454 
  127000    1139.6277   -10234.248   -9880.8551    2974.3525   0.06805454 
  128000    1131.7666   -10231.809   -9880.8533     3011.036  0.071912923 
  129000    1114.0253    -10226.31   -9880.8558    3050.3883  0.066497933 
  130000     1114.569   -10226.493   -9880.8708    3086.9747  0.066194726 
  131000    1111.4871   -10225.514    -9880.847    3123.5561   0.07608701 
  132000    1117.7839   -10227.481   -9880.8622    3161.2993  0.069742043 
  133000    1151.5077   -10237.942   -9880.8655    3197.9035  0.074569516 
  134000     1146.316   -10236.328   -9880.8612    3235.7494  0.066833929 
  135000     1113.539   -10226.147   -9880.8445    3273.4389   0.07005312 
  136000    1131.4674   -10231.708   -9880.8455    3311.7114  0.069206013 
  137000    1148.5366   -10237.013   -9880.8572    3348.5755  0.060966752 
  138000    1156.9368   -10239.604   -9880.8431    3387.4304  0.067374113 
  139000    1131.6967   -10231.781   -9880.8477    3426.2666   0.07463668 
  140000    1117.6682   -10227.421   -9880.8375    3466.2156  0.072179706 
  141000    1136.4536   -10233.259   -9880.8501     3504.431   0.06739621 
  142000     1130.278   -10231.353   -9880.8589    3540.5679  0.071484386 
  143000    1115.3365   -10226.695   -9880.8349    3580.2399   0.06881688 
  144000    1116.4184   -10227.046     -9880.85    3619.2986  0.067331877 
  145000    1132.9485   -10232.153   -9880.8315    3657.8102  0.068065413 
  146000    1102.7947   -10222.796   -9880.8247    3695.4455  0.065971691 
  147000     1115.837   -10226.841   -9880.8252    3733.5352  0.067823191 
  148000    1112.4461   -10225.792   -9880.8279    3771.7764  0.075623448 
  149000     1124.406   -10229.518   -9880.8448    3808.7784  0.068373912 
  150000    1111.8321   -10225.592   -9880.8181    3847.5064  0.067535686 
  151000    1142.5677   -10235.137   -9880.8321    3884.4496  0.068061844 
  152000    1103.8578    -10223.13    -9880.829    3922.6443  0.073554097 
  153000     1102.516   -10222.702   -9880.8174    3960.6292  0.074085561 
  154000    1076.9902   -10214.799   -9880.8295    3997.6454  0.064692742 
  155000    1122.3307    -10228.86   -9880.8311    4035.3751   0.06949462 
  156000     1128.838   -10230.864   -9880.8171    4073.7442  0.067392044 
  157000    1139.5684     -10234.2   -9880.8256    4112.8181  0.066423329 
  158000    1119.0929   -10227.834   -9880.8088    4153.5947  0.068550795 
  159000    1112.8853   -10225.919   -9880.8187    4191.2129  0.068394425 
  160000    1125.6922   -10229.895   -9880.8229    4230.7357  0.068411146 
  161000    1136.7168   -10233.322    -9880.832    4269.2423  0.064921756 
  162000    1122.7705   -10228.977   -9880.8109    4306.2596  0.076201657 
  163000    1140.8934   -10234.619   -9880.8337    4344.3088   0.06824719 
  164000     1114.504   -10226.426   -9880.8236    4384.9464  0.062645023 
  165000    1116.3085   -10226.978   -9880.8158    4422.5594  0.068063032 
  166000    1109.5295   -10224.882   -9880.8222     4459.677  0.069302373 
  167000    1116.0405   -10226.899   -9880.8207    4496.6602  0.072529545 
  168000     1148.327   -10236.924   -9880.8333    4536.3711  0.064396854 
  169000    1119.1007   -10227.852   -9880.8239    4575.0156  0.077339649 
  170000     1105.899   -10223.749   -9880.8152    4611.8225  0.075695921 
  171000    1137.9404    -10233.69   -9880.8207    4650.9052  0.071904334 
  172000    1095.4611    -10220.51   -9880.8127    4689.0478  0.074771023 
  173000    1125.3214   -10229.769   -9880.8119    4725.2478  0.071850035 
  174000    1127.8668   -10230.569   -9880.8234    4762.9138  0.066296091 
  175000    1118.4648   -10227.643   -9880.8121    4802.5028   0.06678101 
  176000    1143.5965   -10235.422   -9880.7982     4840.063  0.070271899 
  177000    1116.4107   -10226.997   -9880.8036     4876.421  0.075365556 
  178000    1134.9807   -10232.766   -9880.8137    4913.9107  0.067560353 
  179000    1120.4321    -10228.25   -9880.8095    4951.9961  0.070707665 
  180000    1115.8557   -10226.839   -9880.8175    4989.5753  0.062860787 
  181000    1145.2803   -10235.967    -9880.821    5028.5294  0.071457028 
  182000     1137.423   -10233.513   -9880.8034    5068.3234   0.07370854 
  183000    1116.6605    -10227.08   -9880.8091    5107.1179  0.071116411 
  184000    1138.7992    -10233.94   -9880.8044     5147.007  0.065398333 
  185000    1126.9382   -10230.254   -9880.7959    5184.9182  0.066268172 
  186000    1124.2257   -10229.406   -9880.7894    5224.0826  0.069007545 
  187000    1103.0238   -10222.839   -9880.7966    5260.8369  0.070658231 
  188000    1105.3297   -10223.551   -9880.7935    5299.5678  0.063939413 
  189000    1132.9371   -10232.105   -9880.7872    5338.4141  0.068027262 
  190000    1127.2317   -10230.334    -9880.785    5375.2535  0.073420908 
  191000    1115.6675   -10226.744   -9880.7811    5414.5647  0.071343928 
  192000    1127.8723   -10230.533   -9880.7856      5453.23  0.068169692 
  193000    1112.8653   -10225.857   -9880.7634    5491.6401  0.064506496 
  194000    1139.0628   -10234.012    -9880.794    5530.0415  0.068410662 
  195000    1134.8223   -10232.688   -9880.7847    5567.1185  0.077339342 
  196000    1123.0251   -10229.024   -9880.7799    5604.8402  0.074787039 
  197000      1118.09   -10227.485   -9880.7711     5643.204  0.074919741 
  198000     1104.858   -10223.388   -9880.7767    5681.5558  0.067369005 
  199000    1117.0236   -10227.153   -9880.7698    5719.0093   0.07045129 
  200000    1153.5693   -10238.495    -9880.779    5756.8943  0.066050849 
  201000    1122.4446   -10228.832   -9880.7675     5796.495  0.066073049 
  202000    1103.4551   -10222.943   -9880.7673    5834.3992  0.073794279 
  203000    1117.7348   -10227.373    -9880.769    5873.6398  0.069611678 
  204000    1130.9475   -10231.464   -9880.7626    5913.0161  0.068768943 
  205000    1102.4947   -10222.628   -9880.7497    5951.0002  0.065374656 
  206000    1114.1376   -10226.245   -9880.7565    5988.5367  0.071114031 
  207000    1114.8103   -10226.466   -9880.7686    6024.8183  0.070695844 
  208000    1110.3407    -10225.06   -9880.7484    6061.9393  0.068369506 
  209000    1107.5269   -10224.201   -9880.7625    6098.0373  0.071164488 
  210000     1088.785   -10218.372   -9880.7452    6134.5895  0.074984992 
  211000    1115.8629   -10226.784   -9880.7606    6172.6719  0.071650175 
  212000     1104.922   -10223.382    -9880.751    6209.5689  0.071750558 
  213000    1109.2177   -10224.711    -9880.748    6245.9003  0.065630552 
  214000    1096.6153    -10220.81   -9880.7545    6285.0704  0.064080001 
  215000    1146.0452   -10236.144   -9880.7606    6321.9719  0.071141206 
  216000    1112.6122   -10225.769    -9880.753     6364.218  0.069571737 
  217000    1127.0298   -10230.238   -9880.7519     6401.262   0.07326958 
  218000    1110.2821   -10225.044   -9880.7509    6438.8409  0.073241945 
  219000    1105.6587   -10223.597   -9880.7373    6477.3125  0.066585606 
  220000    1109.3081   -10224.737   -9880.7463    6515.5514  0.065467224 
  221000    1106.3443   -10223.809   -9880.7367    6553.2773  0.070910873 
  222000    1122.6349    -10228.86   -9880.7368    6591.4727  0.066966679 
  223000    1110.6407   -10225.133   -9880.7286    6629.9161  0.069162932 
  224000    1120.3568   -10228.149   -9880.7323    6668.3113  0.071019368 
  225000    1106.3843   -10223.828   -9880.7438     6707.235  0.069613875 
  226000    1116.7924   -10227.042   -9880.7302     6745.668  0.068717851 
  227000    1118.4702   -10227.569   -9880.7372    6784.8377   0.07188511 
  228000    1135.0245   -10232.703   -9880.7376    6823.3183  0.072595761 
  229000    1112.7156   -10225.771   -9880.7238    6862.5167  0.067303965 
  230000    1137.0685   -10233.334   -9880.7346    6902.0614  0.065032536 
  231000    1103.5522   -10222.925   -9880.7187    6942.2318  0.063217225 
  232000    1141.3263   -10234.637    -9880.717    6980.6466  0.071478173 
  233000    1124.5179   -10229.434   -9880.7261    7019.2499  0.067141778 
  234000     1132.702   -10231.979   -9880.7342    7058.3541  0.073171066 
  235000    1112.5048   -10225.709   -9880.7267     7096.944  0.068815984 
  236000     1139.958   -10234.227   -9880.7312    7134.9399  0.073793642 
  237000    1117.2058   -10227.175   -9880.7348    7172.5108  0.077623939 
  238000    1133.7849   -10232.306   -9880.7245    7211.3862  0.065007547 
  239000     1135.754    -10232.91   -9880.7184    7248.8852  0.069731609 
  240000    1135.5705   -10232.853   -9880.7177    7286.3512  0.068716739 
  241000    1137.3779   -10233.411   -9880.7158    7324.7727  0.071533999 
  242000    1112.5887   -10225.718   -9880.7095    7362.3227  0.074179066 
  243000     1113.883   -10226.119   -9880.7095    7400.9907  0.065112353 
  244000    1095.8636   -10220.534   -9880.7123    7439.9629  0.065628335 
  245000    1112.1244   -10225.581   -9880.7167    7476.7588  0.069435658 
  246000    1119.3034   -10227.803   -9880.7123    7516.5019  0.061716263 
  247000     1122.598   -10228.843   -9880.7306    7555.6846  0.067884617 
  248000    1111.6319   -10225.429   -9880.7171    7595.0312  0.077226471 
  249000    1094.9145   -10220.249   -9880.7214    7631.8441  0.065844041 
  250000    1134.7599   -10232.611   -9880.7279    7671.2145  0.069862841 
Loop time of 32647.5 on 1 procs for 200000 steps with 2400 atoms

Performance: 0.529 ns/day, 45.344 hours/ns, 6.126 timesteps/s
99.8% CPU use with 1 MPI tasks x 1 OpenMP threads

MPI task timing breakdown:
Section |  min time  |  avg time  |  max time  |%varavg| %total
---------------------------------------------------------------
Pair    | 32547      | 32547      | 32547      |   0.0 | 99.69
Neigh   | 81.248     | 81.248     | 81.248     |   0.0 |  0.25
Comm    | 7.8451     | 7.8451     | 7.8451     |   0.0 |  0.02
Output  | 0.0056378  | 0.0056378  | 0.0056378  |   0.0 |  0.00
Modify  | 8.1371     | 8.1371     | 8.1371     |   0.0 |  0.02
Other   |            | 3.357      |            |       |  0.01

Nlocal:        2400.00 ave        2400 max        2400 min
Histogram: 1 0 0 0 0 0 0 0 0 0
Nghost:        4808.00 ave        4808 max        4808 min
Histogram: 1 0 0 0 0 0 0 0 0 0
Neighs:         0.00000 ave           0 max           0 min
Histogram: 1 0 0 0 0 0 0 0 0 0
FullNghs:      219350.0 ave      219350 max      219350 min
Histogram: 1 0 0 0 0 0 0 0 0 0

Total # of neighbors = 219350
Ave neighs/atom = 91.395833
Neighbor list builds = 5674
Dangerous builds = 0
Setting up Verlet run ...
  Unit style    : metal
  Current step  : 250000
  Time step     : 0.001
Per MPI rank memory allocation (min/avg/max) = 4.482 | 4.482 | 4.482 Mbytes
Step Temp E_pair TotEng f_3 v_tdiff f_ave 
  250000    1134.7599   -10232.613   -9880.7298            0  0.069862841  0.069862841 
  251000    1134.3073   -10232.468   -9880.7246    38.937641    0.0724233   0.07114307 
  252000    1145.2116   -10235.859   -9880.7349    81.254948  0.063632418  0.068639519 
  253000    1130.6086   -10231.305   -9880.7085    120.78625  0.067248494  0.068291763 
  254000    1133.2481    -10232.14    -9880.725     160.9929   0.06876406  0.068386222 
  255000    1127.7025   -10230.421   -9880.7259    199.78716  0.072650058  0.069096862 
  256000    1148.6478   -10236.905   -9880.7152    239.26189  0.064595229  0.068453771 
  257000    1119.9477   -10228.009   -9880.7185    277.98384  0.064679097  0.067981937 
  258000    1115.6417   -10226.677   -9880.7217    317.31217  0.061457962  0.067257051 
  259000    1145.2403   -10235.843   -9880.7094    355.97604  0.061882271  0.066719573 
  260000    1116.3712   -10226.902   -9880.7211    395.62101  0.067318587  0.066774029 
  261000    1144.6765   -10235.673   -9880.7143    433.97304  0.061529792  0.066337009 
  262000    1125.0669   -10229.588   -9880.7102    472.17157  0.072729136  0.066828711 
  263000    1133.1651   -10232.114   -9880.7253    510.08244  0.069326853   0.06700715 
  264000    1131.8051   -10231.671   -9880.7037    549.68306  0.070720921  0.067254734 
  265000    1122.3447   -10228.749   -9880.7155    588.58228  0.071553786  0.067523425 
  266000    1132.0979    -10231.76   -9880.7018    625.51655  0.073732844  0.067888685 
  267000    1125.1618   -10229.616   -9880.7091    664.19307  0.072181202  0.068127158 
  268000    1111.2139   -10225.286   -9880.7042    702.23186  0.074907148     0.068484 
  269000    1125.0114   -10229.572   -9880.7118     739.2032  0.079207562  0.069020178 
  270000    1132.4292    -10231.86   -9880.6996    777.20377  0.069260143  0.069031605 
  271000    1107.4768   -10224.136   -9880.7126    815.77086  0.061097668  0.068670971 
  272000    1122.2183   -10228.695   -9880.7009    854.20514  0.064216111  0.068477282 
  273000    1145.8048   -10236.018   -9880.7091    891.84692  0.071385255  0.068598447 
  274000    1128.6558   -10230.693   -9880.7028     929.2168   0.06799997  0.068574508 
  275000    1122.5666   -10228.809   -9880.7062    968.51525  0.065760579   0.06846628 
  276000    1120.5117   -10228.168   -9880.7028    1007.6371  0.069527911    0.0685056 
  277000    1124.4374   -10229.388   -9880.7052    1045.6998  0.074335116  0.068713797 
  278000    1130.4425   -10231.248   -9880.7034     1083.565  0.069152215  0.068728915 
  279000    1140.4292   -10234.353   -9880.7111    1122.2588  0.066009967  0.068638283 
  280000      1122.42   -10228.766   -9880.7087    1160.0166  0.082575268  0.069087863 
  281000     1106.517    -10223.83   -9880.7046    1198.1106  0.068281779  0.069062673 
  282000    1127.9118   -10230.464    -9880.704     1235.953  0.067891413   0.06902718 
  283000    1116.1422   -10226.804   -9880.6935    1274.4493  0.067631922  0.068986143 
  284000    1112.0793   -10225.552   -9880.7014    1315.1253  0.071009415  0.069043951 
  285000    1102.5579   -10222.597   -9880.6989    1355.1244  0.072054763  0.069127585 
  286000    1124.8289   -10229.505    -9880.701    1391.3825  0.070564073  0.069166409 
  287000    1098.8005   -10221.425   -9880.6922     1430.298  0.067399131  0.069119902 
  288000    1121.7266   -10228.521   -9880.6796    1468.0199  0.070502666  0.069155357 
  289000    1086.4622   -10217.578   -9880.6715    1504.3565  0.076414681   0.06933684 
  290000    1133.1618   -10232.077   -9880.6892    1541.2457  0.064260146  0.069213018 
  291000    1093.6788   -10219.845   -9880.7003    1578.6672  0.063676569  0.069081198 
  292000    1109.5085   -10224.739   -9880.6861    1617.0733  0.064104402  0.068965459 
  293000    1124.5397   -10229.407    -9880.693    1655.4498  0.070393334   0.06899791 
  294000    1133.0152   -10232.051   -9880.7083    1693.0768  0.065375529  0.068917413 
  295000    1135.3976   -10232.777   -9880.6961    1731.9208  0.067356381  0.068883478 
  296000    1134.0128   -10232.341    -9880.689    1769.8814  0.070494194  0.068917748 
  297000    1135.7022   -10232.879   -9880.7032    1808.3257  0.072306681  0.068988351 
  298000    1136.3905   -10233.092   -9880.7027    1846.7862  0.062862129  0.068863326 
  299000    1123.0279   -10228.932   -9880.6862    1885.8976  0.061857835  0.068723216 
  300000    1128.3909   -10230.593   -9880.6843    1925.8476  0.070332362  0.068754768 
  301000    1109.6311   -10224.774   -9880.6833    1962.6914  0.070771038  0.068793542 
  302000    1102.0369   -10222.422   -9880.6857    2000.5217  0.075577285  0.068921538 
  303000    1133.9969   -10232.338    -9880.691    2037.7134  0.070856332  0.068957367 
  304000    1130.0869   -10231.117   -9880.6828    2075.0862  0.072731413  0.069025986 
  305000     1146.257    -10236.13   -9880.6812    2113.4792  0.075279049  0.069137648 
  306000    1137.8168   -10233.523    -9880.692    2150.9564  0.065670537  0.069076821 
  307000     1132.568   -10231.891   -9880.6868    2188.8586  0.069350933  0.069081548 
  308000    1143.1859   -10235.183   -9880.6863    2226.7979  0.063571222  0.068988152 
  309000    1148.7526   -10236.901   -9880.6788    2265.7175   0.06506473  0.068922762 
  310000      1138.04   -10233.585   -9880.6844    2302.9623   0.07127087  0.068961255 
  311000    1114.5807   -10226.312   -9880.6855    2341.7933  0.065493359  0.068905322 
  312000    1143.8901   -10235.415   -9880.7003    2380.9876  0.064680638  0.068838263 
  313000    1085.6204   -10217.328   -9880.6826    2420.3409  0.070035872  0.068856976 
  314000    1112.1189   -10225.536   -9880.6735    2459.4228  0.072949246  0.068919934 
  315000    1104.9783   -10223.327   -9880.6788     2500.039  0.067702609  0.068901489 
  316000    1120.5333   -10228.164   -9880.6922    2536.9606  0.072470042  0.068954751 
  317000     1090.766    -10218.92   -9880.6787    2575.1476  0.068878199  0.068953626 
  318000    1123.8796   -10229.199   -9880.6897    2611.2574  0.069060413  0.068955173 
  319000    1145.1548   -10235.789   -9880.6822    2649.0228  0.067280812  0.068931254 
  320000    1099.7593   -10221.712    -9880.682    2687.6307  0.064312417    0.0688662 
  321000    1118.6611   -10227.564   -9880.6731    2725.9549  0.068712947  0.068864071 
  322000    1111.9438   -10225.482   -9880.6741    2763.1257  0.068374849   0.06885737 
  323000    1107.6446   -10224.147   -9880.6723    2800.3824  0.071855998  0.068897892 
  324000    1133.9971   -10232.314   -9880.6675     2838.264  0.067565794   0.06888013 
  325000    1124.2958   -10229.314   -9880.6758    2876.0605     0.066674  0.068851102 
  326000    1134.2493   -10232.392   -9880.6665    2912.6906  0.069505614  0.068859602 
  327000     1112.304   -10225.596   -9880.6757    2950.8133  0.069782977  0.068871441 
  328000     1136.392    -10233.07   -9880.6807    2988.3455  0.070400387  0.068890794 
  329000    1139.4162   -10234.018   -9880.6902    3028.1943  0.069173911  0.068894333 
  330000     1151.097   -10237.637   -9880.6872    3066.2378  0.070827334  0.068918197 
  331000    1148.5503   -10236.826   -9880.6664    3105.0717  0.071403407  0.068948505 
  332000    1114.9369   -10226.414   -9880.6776    3142.4422  0.067987107  0.068936922 
  333000    1129.8614   -10231.043   -9880.6785    3181.0454  0.065353802  0.068894266 
  334000    1127.8679    -10230.41   -9880.6639    3218.9947  0.075951757  0.068977295 
  335000    1123.2839   -10229.006   -9880.6811    3256.8921  0.075185517  0.069049484 
  336000    1119.4353   -10227.807   -9880.6753     3297.087  0.068889326  0.069047643 
  337000    1113.7911   -10226.035    -9880.654    3333.0766  0.067077599  0.069025256 
  338000    1130.1477   -10231.134   -9880.6805    3370.4216  0.065802913   0.06898905 
  339000    1127.7895   -10230.388   -9880.6657    3408.3301  0.063318117  0.068926039 
  340000    1095.6479   -10220.417   -9880.6619      3447.57  0.067646915  0.068911983 
  341000    1137.5957   -10233.438   -9880.6756    3487.9443  0.066257936  0.068883135 
  342000     1127.094   -10230.168   -9880.6616    3527.4926   0.08090506  0.069012403 
  343000    1112.7656   -10225.729   -9880.6654    3565.6113  0.066646158   0.06898723 
  344000    1090.7154   -10218.875   -9880.6495    3605.0504  0.074058731  0.069040614 
  345000    1127.9721   -10230.429   -9880.6501    3644.2749  0.077635941  0.069130149 
  346000    1125.5226   -10229.668   -9880.6489    3681.2408  0.069678422  0.069135801 
  347000    1126.8228   -10230.072     -9880.65    3720.4348  0.071470143  0.069159621 
  348000    1126.6538   -10230.027   -9880.6575    3759.0724  0.067986118  0.069147767 
  349000    1114.0085   -10226.104   -9880.6559    3796.0147  0.069480819  0.069151098 
  350000    1133.2453   -10232.071   -9880.6575    3834.7511  0.067042732  0.069130223 
  351000    1112.9021   -10225.763   -9880.6572    3873.6745  0.072293028  0.069161231 
  352000    1112.6443   -10225.675   -9880.6493     3911.518  0.061513397   0.06908698 
  353000    1149.6026   -10237.155   -9880.6691    3947.4062  0.077629378  0.069169118 
  354000    1144.0855   -10235.429   -9880.6534    3984.6323  0.070229972  0.069179222 
  355000    1126.2142   -10229.899   -9880.6659    4022.1906  0.071630165  0.069202344 
  356000    1139.3805   -10233.962   -9880.6456    4059.8205  0.073712529  0.069244495 
  357000    1121.7894     -10228.5   -9880.6386    4098.8624  0.069831967  0.069249935 
  358000    1129.9354   -10231.048   -9880.6604    4138.3196   0.06714523  0.069230626 
  359000    1140.0541   -10234.171   -9880.6457    4175.7778  0.074098411  0.069274878 
  360000    1123.6145   -10229.053   -9880.6254    4213.1534  0.072166379  0.069300928 
  361000    1123.3029   -10228.962   -9880.6312    4250.3748  0.072106153  0.069325974 
  362000    1163.8711   -10241.548   -9880.6371    4288.5424  0.066955967  0.069305001 
  363000    1128.9337   -10230.706   -9880.6293    4327.4044  0.069451895  0.069306289 
  364000    1123.2317   -10228.955   -9880.6464    4366.3368  0.068737301  0.069301342 
  365000    1173.5935   -10244.564   -9880.6389    4405.5016  0.077798546  0.069374593 
  366000    1127.1307   -10230.149   -9880.6317    4445.1636  0.072938929  0.069405058 
  367000     1134.621   -10232.486   -9880.6459    4485.2497  0.066882213  0.069383678 
  368000    1134.0901   -10232.301    -9880.625    4522.2922  0.066175701   0.06935672 
  369000    1120.1416   -10227.979   -9880.6281    4559.3967  0.074233254  0.069397358 
  370000    1129.8971   -10231.004   -9880.6284    4598.6151     0.069005  0.069394115 
  371000    1129.9372   -10231.017   -9880.6286    4637.6247  0.066302027   0.06936877 
  372000    1127.3592   -10230.208   -9880.6194     4676.002   0.07079585  0.069380372 
  373000    1107.1177   -10223.938   -9880.6267    4717.2182  0.068686339  0.069374775 
  374000    1108.8955   -10224.497    -9880.634    4756.1431  0.069616176  0.069376707 
  375000     1155.812   -10239.053   -9880.6411    4796.4492   0.06142606  0.069313606 
  376000    1131.1992    -10231.41   -9880.6308    4836.4813  0.067529451  0.069299558 
  377000     1144.097   -10235.419   -9880.6401    4873.3003  0.068059208  0.069289867 
  378000    1094.3796   -10219.977   -9880.6148    4911.5372  0.068510369  0.069283825 
  379000    1126.9375   -10230.071   -9880.6135    4950.5551  0.071209517  0.069298638 
  380000     1173.138    -10244.42   -9880.6356    4987.2549  0.071167851  0.069312907 
  381000    1132.3242   -10231.759   -9880.6306    5024.7652  0.073407814  0.069343929 
  382000    1145.7256   -10235.907   -9880.6233    5065.2294  0.069917609  0.069348242 
  383000    1114.9674   -10226.372   -9880.6262    5103.9048  0.068047031  0.069338532 
  384000    1127.4428   -10230.238   -9880.6238    5141.1022   0.06732561  0.069323621 
  385000    1118.4051   -10227.428   -9880.6158    5178.0949  0.071113535  0.069336782 
  386000    1110.5474   -10224.995   -9880.6198    5218.0062  0.067652559  0.069324489 
  387000    1135.7264   -10232.807   -9880.6235    5255.7115  0.065236229  0.069294864 
  388000    1128.1682   -10230.458   -9880.6186    5293.8849    0.0655534  0.069267946 
  389000    1139.1445   -10233.868   -9880.6251     5333.042   0.06814932  0.069259956 
  390000    1129.3259   -10230.812   -9880.6131    5372.2298  0.066951622  0.069243585 
  391000    1149.0349   -10236.919   -9880.6089    5410.6221  0.071375647    0.0692586 
  392000    1141.3339   -10234.542     -9880.62    5450.3895  0.070610613  0.069268054 
  393000    1133.4109   -10232.069   -9880.6042    5489.3605  0.073150422  0.069295015 
  394000    1127.5861   -10230.278   -9880.6194    5528.3371  0.074804275   0.06933301 
  395000    1150.3831   -10237.351   -9880.6224    5567.3573  0.064183901  0.069297742 
  396000    1141.0472   -10234.451    -9880.618    5607.1931  0.062596508  0.069252156 
  397000    1128.4295   -10230.531   -9880.6108    5645.9105  0.073831103  0.069283094 
  398000    1114.9472   -10226.354   -9880.6148    5685.1275  0.064105476  0.069248345 
  399000     1130.811   -10231.273   -9880.6145    5723.6805  0.069695254  0.069251325 
  400000    1126.6972    -10229.99    -9880.607    5761.0293  0.072810559  0.069274896 
  401000    1133.5163   -10232.112   -9880.6145     5800.437  0.070375624  0.069282137 
  402000     1124.821   -10229.407   -9880.6058    5837.7625   0.07207293  0.069300378 
  403000    1132.7068   -10231.846   -9880.5989    5874.7948  0.074831618  0.069336295 
  404000    1123.2892   -10228.933   -9880.6062    5912.3926  0.073468716  0.069362956 
  405000    1148.8649   -10236.867   -9880.6098    5950.3532  0.067618374  0.069351773 
  406000    1127.2078   -10230.136   -9880.5941    5987.8983  0.066821075  0.069335654 
  407000    1123.2446   -10228.917   -9880.6044    6028.3117  0.066232323  0.069316012 
  408000    1142.4206    -10234.87   -9880.6111     6065.406  0.062727985  0.069274578 
  409000    1122.4139   -10228.664    -9880.609    6105.7616  0.059806395  0.069215402 
  410000    1121.5482   -10228.379   -9880.5923    6144.1351   0.06468427  0.069187258 
  411000    1127.0151   -10230.087   -9880.6051     6183.461  0.066819398  0.069172642 
  412000    1123.3098   -10228.934   -9880.6007    6222.6431  0.068640616  0.069169378 
  413000    1128.1224   -10230.417   -9880.5918    6261.2566  0.070675919  0.069178564 
  414000    1113.5883    -10225.91   -9880.5919    6298.8149  0.063566933  0.069144554 
  415000    1098.7515   -10221.322   -9880.6048    6336.8934  0.067621114  0.069135377 
  416000    1130.6519   -10231.204   -9880.5945    6375.5393  0.073659453  0.069162467 
  417000    1108.3865    -10224.29   -9880.5848    6413.2642  0.068815405  0.069160401 
  418000    1096.1755   -10220.495   -9880.5765    6452.0993  0.065312518  0.069137633 
  419000    1095.8911   -10220.428   -9880.5973    6490.5206   0.06983733  0.069141749 
  420000    1124.3357   -10229.251      -9880.6    6529.0612  0.069657429  0.069144764 
  421000    1108.4427   -10224.304   -9880.5811    6566.0366  0.076326221  0.069186517 
  422000    1103.6598   -10222.827   -9880.5877    6602.4692  0.071530593  0.069200066 
  423000    1123.8952   -10229.101   -9880.5862    6641.1376  0.065205073  0.069177107 
  424000    1126.0772   -10229.761   -9880.5697    6680.3229  0.069149903  0.069176951 
  425000    1111.2475   -10225.183   -9880.5902    6719.4099   0.06864363  0.069173921 
  426000    1109.8128   -10224.722   -9880.5742    6757.7539  0.076030564  0.069212659 
  427000    1100.3304   -10221.775   -9880.5683    6796.0166  0.073311325  0.069235685 
  428000    1138.7862   -10233.724   -9880.5916    6832.5292   0.06917447  0.069235343 
  429000    1130.1621   -10231.033   -9880.5755     6870.478  0.072618973  0.069254141 
  430000    1122.9044   -10228.784    -9880.577     6908.374  0.064972146  0.069230484 
  431000    1117.9154   -10227.245    -9880.585    6947.7296  0.063597327  0.069199532 
  432000     1131.735   -10231.537   -9880.5917    6984.7763  0.067953749  0.069192725 
  433000    1141.3097   -10234.501   -9880.5864    7022.1789  0.068580971    0.0691894 
  434000     1118.718   -10227.476   -9880.5666    7060.1208   0.06907318  0.069188772 
  435000    1122.5975   -10228.689   -9880.5775    7100.2256   0.06759532  0.069180205 
  436000     1102.895   -10222.568    -9880.566     7137.303  0.074016328  0.069206067 
  437000    1119.1768   -10227.626   -9880.5748     7175.697  0.070547315  0.069213201 
  438000    1124.1899   -10229.177    -9880.571    7212.3385  0.078715055  0.069263475 
  439000    1146.8015   -10236.197   -9880.5798    7250.0787  0.072026539  0.069278018 
  440000    1122.0429   -10228.507   -9880.5669    7288.2642  0.071951875  0.069292017 
  441000    1123.9579   -10229.094   -9880.5599    7325.2381  0.071558038  0.069303819 
  442000    1104.1396   -10222.959   -9880.5707    7362.4205  0.067438932  0.069294157 
  443000     1133.465   -10232.055   -9880.5728    7400.6709  0.063018359  0.069261807 
  444000    1124.2074   -10229.176   -9880.5646    7440.4667   0.06620358  0.069246124 
  445000    1135.1856   -10232.589   -9880.5734    7479.1321  0.070106974  0.069250516 
  446000     1121.333   -10228.283   -9880.5633    7517.1427  0.070819031  0.069258478 
  447000    1113.3999   -10225.816   -9880.5566    7554.6935  0.068220519  0.069253236 
  448000    1118.6072   -10227.445   -9880.5707    7592.0703  0.071190277   0.06926297 
  449000    1133.0107   -10231.913    -9880.572    7631.0323  0.066297398  0.069248142 
  450000    1110.6264   -10224.965   -9880.5651    7668.9455  0.068677661  0.069245304 
Loop time of 33144.1 on 1 procs for 200000 steps with 2400 atoms

Performance: 0.521 ns/day, 46.033 hours/ns, 6.034 timesteps/s
99.2% CPU use with 1 MPI tasks x 1 OpenMP threads

MPI task timing breakdown:
Section |  min time  |  avg time  |  max time  |%varavg| %total
---------------------------------------------------------------
Pair    | 33044      | 33044      | 33044      |   0.0 | 99.70
Neigh   | 79.431     | 79.431     | 79.431     |   0.0 |  0.24
Comm    | 8.6923     | 8.6923     | 8.6923     |   0.0 |  0.03
Output  | 0.0051268  | 0.0051268  | 0.0051268  |   0.0 |  0.00
Modify  | 8.7486     | 8.7486     | 8.7486     |   0.0 |  0.03
Other   |            | 3.558      |            |       |  0.01

Nlocal:        2400.00 ave        2400 max        2400 min
Histogram: 1 0 0 0 0 0 0 0 0 0
Nghost:        4762.00 ave        4762 max        4762 min
Histogram: 1 0 0 0 0 0 0 0 0 0
Neighs:         0.00000 ave           0 max           0 min
Histogram: 1 0 0 0 0 0 0 0 0 0
FullNghs:      219452.0 ave      219452 max      219452 min
Histogram: 1 0 0 0 0 0 0 0 0 0

Total # of neighbors = 219452
Ave neighs/atom = 91.438333
Neighbor list builds = 5671
Dangerous builds = 0
Running average thermal conductivity: 8.05
System init for write_data ...
Total wall time: 20:32:26
