#FLiNa 100 atoms 2,1,1 ratios

100  atoms
0  bonds
0  angles
0  dihedrals
0  impropers

3  atom types
0  bond types
0  angle types
0  dihedral types
0  improper types

0.0 11.055468882186549 xlo xhi
0.0 11.055468882186549 ylo yhi
0.0 11.055468882186549 zlo zhi

Masses

1 18.998403163    # F 5
2 6.938           # Li 4
3 22.989769       # Na 1

Atoms # 

1 1 21.262 -4.936 25.738
2 1 15.61 11.702 -9.679
3 1 -0.181 15.125 17.737
4 1 -0.259 -8.916 11.752
5 1 10.337 1.939 -1.841
6 1 10.789 9.551 10.306
7 1 2.095 13.839 14.133
8 1 18.826 -3.778 -5.26 
9 1 -14.715 2.858 10.878
10 1 37.574 16.147 2.982
11 1 6.034 3.998 5.896
12 1 4.53 -5.407 -2.513
13 1 -3.189 24.186 7.398
14 1 21.869 11.483 7.038
15 1 4.195 -9.107 4.388
16 1 6.842 6.645 14.093
17 1 -9.417 15.879 19.615
18 1 0.797 42.441 7.677
19 1 1.561 7.108 -0.78 
20 1 16.001 4.339 -10.639
21 1 2.737 9.62 11.276
22 1 10.672 7.248 -4.915
23 1 16.158 23.716 -12.838
24 1 18.73 11.399 12.55 
25 1 7.932 4.85 7.75 
26 1 20.257 4.219 13.565
27 1 16.695 -0.219 6.646
28 1 -26.072 -5.516 11.751
29 1 6.878 -0.487 14.655
30 1 14.082 11.436 -13.549
31 1 9.95 15.515 -11.475
32 1 15.701 -3.205 12.738
33 1 13.287 35.037 28.603
34 1 10.661 12.566 14.642
35 1 -6.767 -13.177 -13.788
36 1 10.2 -23.581 15.468
37 1 25.01 26.443 5.569
38 1 23.582 -6.001 1.057
39 1 -11.972 6.809 -2.132
40 1 8.001 -11.001 9.613
41 1 2.609 -14.833 17.813
42 1 6.146 24.594 -19.322
43 1 13.747 -12.06 -5.309
44 1 8.376 -1.354 7.004
45 1 1.402 19.311 3.195
46 1 2.589 -9.105 0.032
47 1 29.557 8.732 1.049
48 1 -15.14 19.129 20.847
49 1 9.884 7.665 1.638
50 1 -16.666 19.42 -6.289
51 2 -0.494 -11.891 -2.766
52 2 16.508 -7.393 15.376
53 2 6.446 7.297 1.262
54 2 0.527 1.715 13.397
55 2 6.579 -12.611 -24.966
56 2 -7.882 4.096 25.818
57 2 19.373 -9.201 31.821
58 2 13.842 5.941 8.061
59 2 6.573 -12.022 13.014
60 2 7.907 -8.118 2.957
61 2 -13.3 -7.309 22.782
62 2 -8.515 13.578 16.038
63 2 19.714 0.698 29.374
64 2 -25.15 21.542 11.275
65 2 10.469 -2.658 25.12 
66 2 -20.434 15.098 -4.022
67 2 20.323 -2.311 5.401
68 2 16.328 18.212 3.342
69 2 3.849 8.716 6.314
70 2 18.04 -12.731 -6.156
71 2 -2.269 6.467 -19.602
72 2 -20.692 7.695 5.166
73 2 -10.795 29.661 18.839
74 2 9.017 29.633 7.322
75 2 34.352 -0.066 -4.776
76 2 0.39 -16.525 10.471
77 2 4.522 -10.102 18.682
78 2 36.575 -8.257 -9.428
79 2 11.595 34.445 -0.781
80 2 12.29 3.333 22.253
81 2 44.861 13.096 7.289
82 2 -12.122 4.45 19.501
83 2 16.324 12.048 -8.034
84 2 28.927 -29.717 7.287
85 2 -11.002 30.07 -0.453
86 2 -19.377 -1.609 2.069
87 2 -27.546 16.318 -20.342
88 2 -11.326 26.652 13.266
89 2 13.834 9.899 -3.194
90 2 14.041 -33.052 -22.796
91 3 -0.969 5.499 -16.551
92 3 5.703 17.586 16.912
93 3 -4.701 5.464 -12.301
94 3 3.961 -14.319 10.326
95 3 -12.508 33.178 13.745
96 3 -16.267 1.707 -10.892
97 3 -24.372 -3.346 10.284
98 3 -9.578 -15.124 34.844
99 3 6.084 -9.389 5.503
100 3 -6.27 -7.542 -23.721