LAMMPS (29 Sep 2021 - Update 2)
OMP_NUM_THREADS environment is not set. Defaulting to 1 thread. (src/comm.cpp:98)
  using 1 OpenMP thread(s) per MPI task
# lmp -in therm.lammps
# Muller-Plathe method via fix thermal_conductivity

# conda activate nequip_cuda10.1
# export CUDA_VISIBLE_DEVICES=2
#   lmp -in run_therm_1500
# nohup lmp -in run_therm_1500 > therm_1500_job.out #job =8154
# 1) Initialization
units metal
dimension 3
newton off on
atom_style atomic
boundary p p p



# 2) System definition
#read_data	FLiNa_41_1000_startpoint.lammps
read_data	FLiNa_41_1500_100_startpoint.lammps
Reading data file ...
  orthogonal box = (0.0000000 0.0000000 0.0000000) to (11.055469 11.055469 11.055469)
  1 by 1 by 1 MPI processor grid
WARNING: Atom style in data file differs from currently defined atom style (src/read_data.cpp:516)
  reading atoms ...
  100 atoms
  read_data CPU = 0.001 seconds
#read_data	FLiNa_41_100_startpoint1.lammps

#read_data	tttt.lammps
#read_data	test.lammps

# 3) Simulation settings
pair_style	nequip
pair_coeff	* * FLiNa_f_pyt10.2 F Li Na #Li F Na

# 4) NPT:
replicate 2 3 4
Replicating atoms ...
  orthogonal box = (0.0000000 0.0000000 0.0000000) to (22.110938 33.166407 44.221876)
  1 by 1 by 1 MPI processor grid
  2400 atoms
  replicate CPU = 0.001 seconds

# thermo 1
# minimize 1.00e-9 1.0e-9 1000000 10000000
# run 100


timestep .001 # fetmoseconds
variable Tsim equal 1500 # Kelvin
velocity all create ${Tsim} 12335
velocity all create 1500 12335
# dump            dump1 all custom 1 traj_${Tsim}.lammpstrj id type xu yu zu
# dump_modify     dump1 sort id


#-------------------------------------------
# 1st equilibration run
#fix 1 all nve
fix 1 all nvt temp ${Tsim} ${Tsim} $(100.0*dt)
fix 1 all nvt temp 1500 ${Tsim} $(100.0*dt)
fix 1 all nvt temp 1500 1500 $(100.0*dt)
fix 1 all nvt temp 1500 1500 0.10000000000000000555
thermo          100
run 50000
Neighbor list info ...
  update every 1 steps, delay 10 steps, check yes
  max neighbors/atom: 2000, page size: 100000
  master list distance cutoff = 7
  ghost atom cutoff = 7
  binsize = 3.5, bins = 7 10 13
  1 neighbor lists, perpetual/occasional/extra = 1 0 0
  (1) pair nequip, perpetual
      attributes: full, newton off
      pair build: full/bin/atomonly
      stencil: full/bin/3d
      bin: standard
Per MPI rank memory allocation (min/avg/max) = 3.983 | 3.983 | 3.983 Mbytes
Step Temp E_pair E_mol TotEng Press 
       0         1500   -10821.467            0   -10356.324    15320.132 
     100    1567.3703    -10837.28            0   -10351.246    16008.214 
     200    1482.7129   -10822.573            0   -10362.791    15143.571 
     300    1454.1548   -10826.981            0   -10376.055    14851.896 
     400    1460.9471   -10823.676            0   -10370.643    14921.268 
     500    1506.8833   -10816.438            0    -10349.16    15390.434 
     600     1534.031   -10819.992            0   -10344.297    15667.705 
     700    1502.2299   -10815.744            0    -10349.91    15342.906 
     800    1522.5218   -10828.979            0   -10356.853    15550.156 
     900    1481.6282   -10822.337            0   -10362.891    15132.493 
    1000    1493.2973   -10825.061            0   -10361.996    15251.675 
    1100    1510.3642   -10815.849            0   -10347.492    15425.986 
    1200    1500.0073    -10802.09            0   -10336.945    15320.207 
    1300    1521.1553   -10811.343            0    -10339.64      15536.2 
    1400    1499.4411   -10820.631            0   -10355.662    15314.423 
    1500    1460.2808   -10819.596            0    -10366.77    14914.463 
    1600    1496.0813   -10826.647            0    -10362.72    15280.109 
    1700    1493.9957   -10823.065            0   -10359.785    15258.808 
    1800    1497.4192   -10819.025            0   -10354.683    15293.773 
    1900    1519.2756   -10814.132            0   -10343.012    15517.001 
    2000     1506.098   -10804.149            0   -10337.116    15382.413 
    2100    1515.4558   -10822.941            0   -10353.006    15477.989 
    2200    1468.2935   -10822.688            0   -10367.377      14996.3 
    2300    1487.0112   -10817.687            0   -10356.572    15187.472 
    2400    1519.5976   -10815.812            0   -10344.593     15520.29 
    2500    1522.3629   -10815.008            0   -10342.931    15548.533 
    2600    1478.0466   -10812.649            0   -10354.314    15095.912 
    2700    1429.7108   -10811.271            0   -10367.925    14602.239 
    2800    1494.3446   -10822.441            0   -10359.052    15262.371 
    2900    1495.5308   -10800.137            0    -10336.38    15274.486 
    3000    1542.5545   -10808.932            0   -10330.593    15754.759 
    3100     1518.982   -10812.089            0    -10341.06    15514.003 
    3200    1493.2128    -10817.52            0   -10354.482    15250.811 
    3300    1475.0566   -10815.577            0   -10358.169    15065.374 
    3400    1490.4305   -10816.089            0   -10353.914    15222.395 
    3500    1585.6974   -10822.986            0   -10331.269    16195.396 
    3600    1519.0998   -10807.532            0   -10336.467    15515.206 
    3700    1513.7749   -10816.122            0   -10346.708     15460.82 
    3800    1528.3448   -10827.812            0   -10353.879    15609.629 
    3900    1498.6741   -10818.504            0   -10353.772     15306.59 
    4000    1529.1215     -10808.4            0   -10334.227    15617.562 
    4100    1578.8849   -10812.664            0    -10323.06    16125.817 
    4200    1534.6747   -10812.912            0   -10337.017    15674.279 
    4300    1500.9136   -10815.226            0     -10349.8    15329.463 
    4400    1481.2887   -10813.813            0   -10354.473    15129.026 
    4500    1462.3713   -10805.463            0   -10351.989    14935.814 
    4600    1501.9613    -10798.47            0   -10332.719    15340.164 
    4700    1551.2882    -10810.65            0   -10329.604     15843.96 
    4800    1539.8501   -10820.553            0   -10343.053    15727.137 
    4900     1498.884   -10814.958            0   -10350.161    15308.734 
    5000    1488.5571   -10810.937            0   -10349.342    15203.261 
    5100    1511.9833    -10814.33            0   -10345.471    15442.522 
    5200    1468.2705   -10807.045            0   -10351.741    14996.065 
    5300    1467.1826   -10810.862            0   -10355.896    14984.954 
    5400    1497.7172   -10811.989            0   -10347.555    15296.817 
    5500    1517.9006   -10805.411            0   -10334.718    15502.958 
    5600    1516.5629   -10796.638            0   -10326.359    15489.296 
    5700    1489.9182   -10799.919            0   -10337.903    15217.162 
    5800    1513.6156   -10821.847            0   -10352.482    15459.194 
    5900    1459.1018   -10807.471            0    -10355.01    14902.421 
    6000    1532.9066   -10823.613            0   -10348.266    15656.221 
    6100    1495.6999    -10805.38            0   -10341.571    15276.213 
    6200    1501.4197   -10808.756            0   -10343.173    15334.632 
    6300    1472.5981   -10815.427            0   -10358.781    15040.265 
    6400    1449.3865    -10815.72            0   -10366.272    14803.194 
    6500    1490.0827    -10816.17            0   -10354.103    15218.842 
    6600    1516.1164   -10818.047            0   -10347.907    15484.735 
    6700    1521.6607   -10821.304            0   -10349.444    15541.361 
    6800    1489.8296   -10823.732            0   -10361.744    15216.257 
    6900    1501.7693   -10829.914            0   -10364.223    15338.203 
    7000    1498.6123   -10808.257            0   -10343.545    15305.959 
    7100    1542.0855   -10813.883            0    -10335.69    15749.969 
    7200    1480.0867    -10805.32            0   -10346.353    15116.749 
    7300    1453.2728   -10806.336            0   -10355.683    14842.888 
    7400    1467.6517   -10815.428            0   -10360.316    14989.746 
    7500    1493.0319   -10811.019            0   -10348.037    15248.964 
    7600    1513.5447   -10800.546            0   -10331.203     15458.47 
    7700    1505.8837   -10801.826            0   -10334.859    15380.224 
    7800    1492.1564   -10808.647            0   -10345.937    15240.021 
    7900    1466.6918   -10811.903            0   -10357.089    14979.941 
    8000    1468.7234   -10809.954            0    -10354.51    15000.691 
    8100    1524.3862   -10806.162            0   -10333.457    15569.198 
    8200    1531.1908   -10800.842            0   -10326.027    15638.697 
    8300    1488.3808   -10799.547            0   -10338.007     15201.46 
    8400    1496.6793   -10814.284            0   -10350.171    15286.216 
    8500    1515.0497   -10822.658            0   -10352.849    15473.841 
    8600    1482.0006   -10811.281            0    -10351.72    15136.296 
    8700     1520.956   -10814.062            0   -10342.421    15534.164 
    8800    1534.8591   -10800.729            0   -10324.777    15676.163 
    8900    1547.0316    -10810.31            0   -10330.583    15800.485 
    9000     1491.258   -10812.969            0   -10350.537    15230.846 
    9100    1490.2579   -10815.493            0   -10353.371    15220.632 
    9200    1488.7381    -10814.37            0    -10352.72    15205.109 
    9300    1481.2501    -10800.71            0   -10341.382    15128.632 
    9400    1535.3293   -10805.238            0    -10329.14    15680.965 
    9500    1534.7678   -10808.907            0   -10332.983     15675.23 
    9600    1509.6886   -10816.811            0   -10348.664    15419.086 
    9700    1494.2157   -10818.964            0   -10355.615    15261.055 
    9800    1477.4857   -10818.621            0    -10360.46    15090.184 
    9900    1493.0089   -10820.433            0   -10357.458    15248.729 
   10000    1510.1674   -10815.035            0    -10346.74    15423.976 
   10100    1531.4678   -10807.423            0   -10332.522    15641.526 
   10200    1531.8346   -10813.192            0   -10338.178    15645.272 
   10300    1509.1767   -10819.342            0   -10351.354    15413.858 
   10400    1499.1772   -10818.339            0   -10353.451    15311.729 
   10500    1498.7298   -10813.864            0   -10349.116    15307.159 
   10600    1540.4469   -10815.142            0   -10337.457    15733.233 
   10700    1506.1223   -10803.698            0   -10336.657    15382.661 
   10800    1510.1406   -10805.296            0   -10337.009    15423.702 
   10900    1506.1622   -10808.675            0   -10341.621    15383.069 
   11000    1475.5656   -10808.041            0   -10350.475    15070.573 
   11100     1473.812   -10812.438            0   -10355.417    15052.663 
   11200    1489.1703   -10814.773            0   -10352.989    15209.524 
   11300    1514.3731   -10804.715            0   -10335.115     15466.93 
   11400      1511.67   -10800.175            0   -10331.413    15439.322 
   11500    1509.4842   -10808.596            0   -10340.512    15416.998 
   11600    1493.7995   -10812.969            0   -10349.749    15256.804 
   11700     1486.616    -10813.02            0   -10352.027    15183.436 
   11800    1483.8653    -10811.82            0   -10351.681    15155.341 
   11900    1504.2288   -10811.614            0    -10345.16    15363.323 
   12000    1539.4091   -10806.475            0   -10329.111    15722.633 
   12100    1545.2563   -10810.782            0   -10331.606    15782.354 
   12200    1472.7773   -10810.317            0   -10353.616    15042.095 
   12300     1500.178   -10819.975            0   -10354.777     15321.95 
   12400     1493.294   -10814.512            0   -10351.449     15251.64 
   12500    1493.3795   -10812.142            0   -10349.052    15252.514 
   12600    1491.8095   -10811.444            0   -10348.842    15236.479 
   12700    1491.6916   -10802.676            0    -10340.11    15235.275 
   12800    1563.6652   -10816.248            0   -10331.363    15970.371 
   12900       1506.2    -10810.44            0   -10343.375    15383.455 
   13000    1469.8158   -10813.388            0   -10357.605    15011.847 
   13100    1467.9671   -10811.684            0   -10356.474    14992.966 
   13200    1498.3137   -10813.429            0   -10348.809    15302.909 
   13300    1541.7929   -10814.377            0   -10336.275    15746.981 
   13400     1561.101   -10807.184            0   -10323.094    15944.182 
   13500    1497.8961   -10799.224            0   -10334.733    15298.644 
   13600    1521.1866   -10822.882            0   -10351.169    15536.519 
   13700    1490.9402   -10814.007            0   -10351.674      15227.6 
   13800    1490.5661   -10803.997            0    -10341.78    15223.779 
   13900    1523.0709   -10808.526            0    -10336.23    15555.765 
   14000    1480.2588   -10811.924            0   -10352.903    15118.507 
   14100    1463.0255   -10818.737            0    -10365.06    14942.496 
   14200    1465.4862   -10816.425            0   -10361.985    14967.627 
   14300    1493.4013    -10812.68            0   -10349.583    15252.736 
   14400    1534.3345   -10813.215            0   -10337.425    15670.804 
   14500    1491.9378   -10793.512            0   -10330.869    15237.789 
   14600    1537.8285   -10801.562            0   -10324.688     15706.49 
   14700    1503.9536   -10809.459            0    -10343.09    15360.512 
   14800    1475.8163   -10813.116            0   -10355.473    15073.134 
   14900    1473.4526   -10815.377            0   -10358.467    15048.992 
   15000    1521.1333   -10823.824            0   -10352.128    15535.975 
   15100    1523.6619   -10809.182            0   -10336.702    15561.801 
   15200    1510.8168   -10801.851            0   -10333.354    15430.608 
   15300    1504.2512   -10807.372            0   -10340.911    15363.551 
   15400    1445.3218   -10815.766            0   -10367.578    14761.681 
   15500    1473.2312   -10820.196            0   -10363.355    15046.731 
   15600    1501.9689   -10812.826            0   -10347.073    15340.241 
   15700    1533.6957   -10816.107            0   -10340.516     15664.28 
   15800    1492.4006   -10807.385            0   -10344.599    15242.516 
   15900    1477.2346   -10819.739            0   -10361.656    15087.619 
   16000    1473.5626   -10821.953            0   -10365.009    15050.115 
   16100    1509.3943   -10823.705            0   -10355.649     15416.08 
   16200    1486.8868   -10809.994            0   -10348.918    15186.202 
   16300    1490.7568   -10801.056            0   -10338.779    15225.727 
   16400    1492.0269   -10799.149            0   -10336.479    15238.699 
   16500    1517.4484   -10812.347            0   -10341.793     15498.34 
   16600    1465.3212   -10816.667            0   -10362.278    14965.943 
   16700    1479.1494   -10821.373            0   -10362.696    15107.176 
   16800    1487.7042   -10813.688            0   -10352.359     15194.55 
   16900    1506.7463   -10811.173            0   -10343.938    15389.035 
   17000    1479.2742   -10802.604            0   -10343.889    15108.451 
   17100    1479.7383   -10802.078            0   -10343.219    15113.191 
   17200    1554.2828   -10827.455            0    -10345.48    15874.545 
   17300    1463.1903   -10821.826            0   -10368.098    14944.179 
   17400    1460.8214   -10821.878            0   -10368.884    14919.984 
   17500    1517.3308   -10827.262            0   -10356.745    15497.139 
   17600    1528.2404   -10823.354            0   -10349.455    15608.563 
   17700    1520.6874   -10820.757            0   -10349.199    15531.421 
   17800    1487.3844   -10816.169            0   -10354.938    15191.284 
   17900    1463.2806   -10830.245            0   -10376.489    14945.101 
   18000    1484.9448   -10835.111            0   -10374.637    15166.367 
   18100    1472.9701   -10814.571            0    -10357.81    15044.064 
   18200    1479.6256   -10803.918            0   -10345.093     15112.04 
   18300    1525.2165   -10810.397            0   -10337.435    15577.678 
   18400     1540.235   -10818.209            0    -10340.59    15731.069 
   18500    1475.3357   -10817.689            0   -10360.195    15068.225 
   18600    1493.8129   -10828.181            0   -10364.957     15256.94 
   18700    1480.5633   -10816.248            0   -10357.133    15121.617 
   18800    1502.1951   -10813.522            0   -10347.699    15342.552 
   18900    1512.7437   -10816.464            0   -10347.369    15450.288 
   19000    1500.2474   -10815.084            0   -10349.865    15322.659 
   19100     1508.996   -10817.888            0   -10349.955    15412.012 
   19200     1496.685   -10817.009            0   -10352.894    15286.274 
   19300    1485.1126   -10815.005            0   -10354.479     15168.08 
   19400    1502.6871   -10816.587            0   -10350.611    15347.576 
   19500     1530.261   -10809.548            0   -10335.021      15629.2 
   19600    1519.6575   -10801.216            0   -10329.978    15520.902 
   19700    1529.0114   -10819.831            0   -10345.692    15616.438 
   19800    1499.3619   -10819.331            0   -10354.386    15313.615 
   19900    1523.1405   -10827.517            0   -10355.198    15556.475 
   20000    1474.8917    -10815.41            0   -10358.053     15063.69 
   20100    1501.7755   -10820.443            0    -10354.75    15338.266 
   20200    1485.5073   -10798.655            0   -10338.007    15172.112 
   20300     1533.231   -10809.492            0   -10334.045    15659.534 
   20400    1488.4398   -10809.966            0   -10348.408    15202.063 
   20500     1497.847   -10820.111            0   -10355.636    15298.143 
   20600     1474.273   -10809.364            0   -10352.199    15057.371 
   20700    1474.4567   -10807.131            0   -10349.909    15059.247 
   20800    1500.6496   -10813.196            0   -10347.852    15326.767 
   20900    1476.4714   -10810.575            0   -10352.729    15079.824 
   21000    1474.3951   -10816.004            0   -10358.801    15058.618 
   21100    1496.1685    -10812.11            0   -10348.156        15281 
   21200     1552.655   -10817.207            0   -10335.736    15857.919 
   21300    1517.8614    -10811.46            0   -10340.779    15502.558 
   21400    1512.1477    -10820.38            0    -10351.47    15444.202 
   21500    1439.4315   -10812.965            0   -10366.604    14701.521 
   21600    1441.6994   -10815.175            0   -10368.111    14724.684 
   21700    1511.7872   -10814.398            0   -10345.601    15440.519 
   21800    1508.7144   -10806.604            0   -10338.759    15409.135 
   21900    1516.1997   -10817.306            0    -10347.14    15485.587 
   22000    1467.7686   -10814.762            0   -10359.614    14990.939 
   22100      1509.25   -10825.273            0   -10357.262    15414.606 
   22200    1508.2813    -10823.27            0   -10355.559    15404.712 
   22300    1498.6018   -10805.795            0   -10341.086    15305.851 
   22400    1512.7291   -10799.203            0   -10330.113    15450.139 
   22500    1518.9832   -10805.799            0    -10334.77    15514.015 
   22600    1498.2173   -10811.508            0   -10346.918    15301.924 
   22700    1475.6195   -10807.549            0   -10349.966    15071.124 
   22800    1550.4578   -10813.868            0   -10333.079    15835.479 
   22900    1541.7431   -10801.648            0   -10323.561    15746.472 
   23000    1527.8225   -10809.077            0   -10335.307    15604.295 
   23100    1502.5544   -10812.143            0   -10346.208    15346.221 
   23200    1560.4844   -10831.348            0   -10347.449    15937.885 
   23300    1478.2602   -10812.527            0   -10354.126    15098.094 
   23400    1513.5788   -10827.887            0   -10358.533    15458.818 
   23500    1488.2472   -10818.151            0   -10356.653    15200.096 
   23600    1481.6112   -10805.201            0   -10345.761     15132.32 
   23700    1513.6102   -10804.664            0   -10335.301    15459.139 
   23800    1539.5708   -10813.321            0   -10335.908    15724.285 
   23900    1480.6343   -10816.009            0   -10356.871    15122.342 
   24000    1495.6144    -10822.99            0   -10359.208     15275.34 
   24100    1510.5298   -10821.078            0    -10352.67    15427.677 
   24200    1505.5408   -10817.129            0   -10350.268    15376.723 
   24300    1528.5083   -10820.134            0   -10346.151    15611.299 
   24400    1499.5088   -10808.068            0   -10343.078    15315.115 
   24500    1511.1475   -10808.085            0   -10339.486    15433.986 
   24600    1510.0333   -10810.255            0   -10342.001    15422.606 
   24700    1513.5415   -10823.101            0   -10353.759    15458.437 
   24800    1471.8522   -10822.222            0   -10365.808    15032.646 
   24900    1502.9304   -10826.891            0   -10360.839    15350.061 
   25000    1517.7326   -10814.867            0   -10344.226    15501.242 
   25100    1502.3529   -10805.965            0   -10340.093    15344.163 
   25200    1534.5596   -10816.822            0   -10340.963    15673.103 
   25300    1488.1322    -10812.76            0   -10351.297    15198.921 
   25400    1466.4783   -10813.101            0   -10358.353    14977.761 
   25500    1513.5527   -10817.777            0   -10348.432    15458.551 
   25600    1536.0288    -10807.17            0   -10330.855     15688.11 
   25700    1498.8324   -10797.976            0   -10333.195    15308.207 
   25800    1514.2777    -10815.87            0     -10346.3    15465.956 
   25900    1471.1467   -10811.257            0   -10355.061    15025.441 
   26000    1473.9174   -10808.823            0   -10351.769     15053.74 
   26100    1482.6126   -10802.072            0   -10342.321    15142.547 
   26200    1510.0988   -10801.307            0   -10333.032    15423.275 
   26300    1516.3977   -10809.767            0   -10339.539    15487.609 
   26400    1466.9654   -10817.167            0   -10362.268    14982.736 
   26500    1490.9319   -10817.463            0   -10355.132    15227.515 
   26600    1530.1147   -10814.719            0   -10340.238    15627.706 
   26700     1566.566   -10823.637            0   -10337.852    15999.999 
   26800    1482.1449   -10812.711            0   -10353.105     15137.77 
   26900    1468.8011   -10812.975            0   -10357.507    15001.484 
   27000    1504.1206   -10821.439            0   -10355.019    15362.217 
   27100    1502.0624   -10815.962            0    -10350.18    15341.196 
   27200    1507.2179   -10814.206            0   -10346.825    15393.852 
   27300    1476.3313   -10805.803            0       -10348    15078.393 
   27400    1478.5923   -10805.362            0   -10346.858    15101.486 
   27500    1469.7672   -10802.639            0   -10346.871    15011.351 
   27600    1500.1067   -10807.042            0   -10341.866    15321.222 
   27700    1507.9274   -10802.423            0   -10334.822    15401.097 
   27800    1534.7801   -10817.664            0   -10341.736    15675.356 
   27900    1472.0385   -10816.788            0   -10360.316     15034.55 
   28000    1487.6558   -10821.322            0   -10360.008    15194.055 
   28100    1540.3816   -10824.474            0   -10346.809    15732.566 
   28200    1508.1432   -10808.708            0    -10341.04    15403.302 
   28300     1498.438   -10807.033            0   -10342.375    15304.179 
   28400    1507.5995   -10813.678            0   -10346.179    15397.749 
   28500     1490.642    -10808.95            0   -10346.709    15224.555 
   28600     1529.815   -10820.942            0   -10346.554    15624.645 
   28700    1508.6138    -10819.41            0   -10351.596    15408.108 
   28800    1520.6632   -10821.887            0   -10350.337    15531.174 
   28900    1528.0096   -10816.549            0   -10342.721    15606.206 
   29000    1499.3688    -10809.74            0   -10344.793    15313.686 
   29100    1495.3834   -10805.163            0   -10341.452     15272.98 
   29200    1517.7846   -10811.013            0   -10340.355    15501.774 
   29300    1515.5512   -10825.935            0    -10355.97    15478.963 
   29400    1473.6361    -10823.48            0   -10366.513    15050.867 
   29500    1450.6156   -10807.107            0   -10357.279    14815.748 
   29600    1531.5344   -10817.673            0   -10342.752    15642.206 
   29700    1486.9235   -10799.759            0   -10338.671    15186.576 
   29800    1474.9567   -10796.991            0   -10339.614    15064.354 
   29900     1481.896   -10810.813            0   -10351.285    15135.228 
   30000     1466.827   -10817.745            0   -10362.889    14981.322 
   30100    1490.1354   -10817.027            0   -10354.944     15219.38 
   30200    1510.0534   -10808.321            0   -10340.061    15422.811 
   30300    1501.0652   -10803.773            0     -10338.3    15331.011 
   30400    1493.0668   -10803.561            0   -10340.568     15249.32 
   30500    1514.4922   -10816.489            0   -10346.853    15468.146 
   30600    1459.3393    -10814.57            0   -10362.036    14904.847 
   30700    1514.5044     -10830.3            0   -10360.659    15468.272 
   30800    1475.4813   -10812.602            0   -10355.062    15069.712 
   30900    1492.7988   -10810.109            0     -10347.2    15246.583 
   31000    1519.9296   -10814.424            0   -10343.101    15523.681 
   31100    1468.0101   -10810.465            0   -10355.242    14993.405 
   31200    1454.9607   -10820.262            0   -10369.086    14860.126 
   31300    1483.9672   -10822.281            0    -10362.11    15156.382 
   31400    1495.1963   -10816.301            0   -10352.648     15271.07 
   31500    1484.3815   -10803.227            0   -10342.927    15160.614 
   31600    1515.7073   -10811.596            0   -10341.582    15480.557 
   31700    1481.9176   -10813.719            0   -10354.183    15135.449 
   31800    1449.4815   -10821.918            0   -10372.441    14804.165 
   31900     1467.601   -10822.227            0   -10367.131    14989.227 
   32000    1508.6866   -10823.543            0   -10355.707    15408.852 
   32100    1481.3336   -10804.422            0   -10345.068    15129.484 
   32200    1511.8697   -10808.171            0   -10339.348    15441.362 
   32300    1538.6225   -10812.861            0   -10335.742    15714.599 
   32400    1495.5655   -10813.249            0   -10349.482     15274.84 
   32500    1475.6567   -10816.446            0   -10358.852    15071.504 
   32600    1497.2947   -10813.024            0   -10348.721    15292.501 
   32700    1515.6781   -10814.405            0   -10344.401    15480.259 
   32800    1516.6062    -10821.29            0   -10350.998    15489.738 
   32900    1446.2797   -10817.446            0   -10368.962    14771.463 
   33000    1480.2727    -10823.99            0   -10364.965    15118.649 
   33100    1505.2621   -10812.545            0   -10345.771    15373.876 
   33200    1504.8174   -10807.455            0   -10340.819    15369.334 
   33300    1525.6978   -10815.362            0   -10342.251    15582.594 
   33400    1502.6131   -10814.413            0    -10348.46     15346.82 
   33500    1466.3998   -10816.163            0    -10361.44    14976.959 
   33600    1484.8243   -10825.523            0   -10365.087    15165.136 
   33700    1504.0658   -10813.029            0   -10346.626    15361.658 
   33800    1542.2269   -10813.797            0    -10335.56    15751.413 
   33900    1501.6876   -10809.234            0   -10343.568    15337.368 
   34000    1477.1007   -10812.723            0   -10354.681    15086.252 
   34100    1484.1545   -10814.523            0   -10354.294    15158.295 
   34200    1523.3428   -10812.492            0   -10340.111    15558.542 
   34300    1552.1477   -10811.211            0   -10329.898    15852.738 
   34400    1504.4206   -10813.128            0   -10346.614    15365.282 
   34500    1489.4249   -10817.159            0   -10355.296    15212.124 
   34600    1491.5042   -10815.221            0   -10352.713     15233.36 
   34700    1505.1167   -10806.895            0   -10340.165    15372.391 
   34800    1525.3219   -10805.005            0    -10332.01    15578.755 
   34900    1517.9034   -10819.252            0   -10348.558    15502.986 
   35000    1466.4432   -10815.953            0   -10361.216    14977.402 
   35100    1480.5351   -10814.602            0   -10355.495    15121.329 
   35200    1498.0304   -10807.004            0   -10342.472    15300.015 
   35300    1518.1107   -10807.262            0   -10336.503    15505.104 
   35400    1496.2793   -10813.686            0   -10349.697    15282.131 
   35500    1455.3387   -10812.009            0   -10360.715    14863.987 
   35600    1478.0179    -10814.28            0   -10355.954     15095.62 
   35700     1498.676   -10812.118            0   -10347.386    15306.609 
   35800    1500.1626   -10806.928            0   -10341.735    15321.792 
   35900    1521.6705   -10798.182            0   -10326.319    15541.462 
   36000    1534.5254   -10798.971            0   -10323.122    15672.754 
   36100    1480.1573   -10802.414            0   -10343.425     15117.47 
   36200    1500.9236   -10815.875            0   -10350.446    15329.565 
   36300    1511.7213    -10821.58            0   -10352.803    15439.847 
   36400    1499.8685   -10813.808            0   -10348.706    15318.788 
   36500    1489.6836   -10808.486            0   -10346.543    15214.766 
   36600    1482.3746   -10811.354            0   -10351.677    15140.116 
   36700    1517.8069   -10823.396            0   -10352.731    15502.001 
   36800    1498.2372   -10816.852            0   -10352.256    15302.128 
   36900    1506.8112    -10814.34            0   -10347.085    15389.697 
   37000    1549.2874   -10820.879            0   -10340.452    15823.525 
   37100    1521.7536   -10813.361            0   -10341.473    15542.311 
   37200    1469.0439   -10810.438            0   -10354.895    15003.965 
   37300    1477.5116   -10822.218            0   -10364.049    15090.448 
   37400    1489.6876   -10815.073            0   -10353.128    15214.807 
   37500    1537.6914   -10815.112            0   -10338.282     15705.09 
   37600    1486.2784   -10801.269            0   -10340.381    15179.987 
   37700    1503.1969   -10809.003            0   -10342.869    15352.783 
   37800    1487.6965   -10813.442            0   -10352.115    15194.471 
   37900    1494.1093   -10820.986            0    -10357.67    15259.968 
   38000    1481.1704   -10818.117            0   -10358.814    15127.818 
   38100    1513.1787   -10811.936            0   -10342.706    15454.731 
   38200    1489.7424   -10794.487            0   -10332.526    15215.366 
   38300    1551.5556   -10814.965            0   -10333.835    15846.691 
   38400    1492.9542   -10812.121            0   -10349.163     15248.17 
   38500    1501.6533   -10826.074            0   -10360.419    15337.018 
   38600    1490.0402   -10819.651            0   -10357.597    15218.408 
   38700    1515.5999   -10818.946            0   -10348.966     15479.46 
   38800    1517.0925   -10809.895            0   -10339.452    15494.704 
   38900    1508.5355   -10804.229            0   -10336.439    15407.308 
   39000    1491.2811   -10811.646            0   -10349.208    15231.082 
   39100    1487.0262   -10825.825            0   -10364.706    15187.625 
   39200    1454.0363   -10810.301            0   -10359.411    14850.685 
   39300    1499.3832   -10813.102            0    -10348.15    15313.832 
   39400    1510.0677   -10813.445            0   -10345.181    15422.958 
   39500    1489.2775   -10811.167            0   -10349.349    15210.619 
   39600    1464.0199   -10820.626            0   -10366.641    14952.652 
   39700    1467.1721   -10834.438            0   -10379.476    14984.847 
   39800    1524.1498   -10838.138            0   -10365.506    15566.784 
   39900    1469.6787   -10811.221            0   -10355.481    15010.448 
   40000    1535.2637   -10820.905            0   -10344.828    15680.295 
   40100    1538.4239   -10816.778            0   -10339.721    15712.571 
   40200     1507.617   -10818.365            0   -10350.861    15397.928 
   40300    1509.1483    -10826.78            0   -10358.801    15413.568 
   40400    1470.5688    -10814.64            0   -10358.623    15019.539 
   40500    1537.4606   -10820.315            0   -10343.556    15702.733 
   40600    1524.9637   -10812.358            0   -10339.475    15575.097 
   40700    1498.9144   -10812.656            0    -10347.85    15309.044 
   40800    1494.7093   -10823.439            0   -10359.937    15266.095 
   40900    1471.4285   -10819.549            0   -10363.266    15028.319 
   41000    1487.1334   -10804.814            0   -10343.662     15188.72 
   41100    1505.5219   -10803.036            0   -10336.181    15376.529 
   41200    1503.1049   -10811.902            0   -10345.797    15351.844 
   41300    1516.0475   -10824.385            0   -10354.266    15484.031 
   41400    1484.5727   -10822.719            0    -10362.36    15162.567 
   41500    1509.7618   -10840.497            0   -10372.327    15419.833 
   41600    1494.2432   -10840.755            0   -10377.397    15261.335 
   41700    1441.6477   -10804.574            0   -10357.526    14724.155 
   41800    1516.6913   -10814.951            0   -10344.633    15490.607 
   41900     1523.417   -10812.307            0   -10339.903    15559.299 
   42000     1527.567   -10817.269            0   -10343.578    15601.686 
   42100    1456.0647   -10809.029            0   -10357.511    14871.402 
   42200    1506.9423   -10824.618            0   -10357.323    15391.036 
   42300    1490.7327    -10801.88            0   -10339.611    15225.481 
   42400    1535.3845   -10803.054            0   -10326.939    15681.529 
   42500    1540.1865   -10812.221            0   -10334.616    15730.573 
   42600    1490.5909   -10810.689            0   -10348.465    15224.032 
   42700    1487.6118   -10810.374            0   -10349.073    15193.606 
   42800    1473.2028   -10804.062            0    -10347.23    15046.441 
   42900     1529.918    -10812.75            0    -10338.33    15625.697 
   43000       1533.9   -10801.202            0   -10325.547    15666.367 
   43100    1553.5864   -10807.949            0    -10326.19    15867.433 
   43200     1488.169   -10806.957            0   -10345.483    15199.297 
   43300    1481.2578   -10813.321            0   -10353.991     15128.71 
   43400    1478.1492   -10810.571            0   -10352.204    15096.961 
   43500    1510.4455   -10814.642            0    -10346.26    15426.816 
   43600    1525.1122   -10815.356            0   -10342.427    15576.613 
   43700    1484.8653   -10806.987            0   -10346.538    15165.555 
   43800    1486.6898   -10817.887            0   -10356.872    15184.189 
   43900    1481.3332   -10818.358            0   -10359.004     15129.48 
   44000    1516.8103    -10814.22            0   -10343.864    15491.822 
   44100    1515.2684   -10805.623            0   -10335.746    15476.075 
   44200    1482.2273   -10801.002            0   -10341.371    15138.612 
   44300    1477.0612   -10817.989            0    -10359.96    15085.849 
   44400     1427.998   -10815.796            0   -10372.981    14584.745 
   44500    1507.0553   -10824.784            0   -10357.454     15392.19 
   44600    1515.8778   -10818.127            0   -10348.061    15482.298 
   44700    1485.6352   -10808.983            0   -10348.295    15173.419 
   44800     1488.763   -10812.243            0   -10350.585    15205.364 
   44900    1465.3901   -10816.673            0   -10362.263    14966.646 
   45000    1478.2263   -10824.836            0   -10366.445    15097.748 
   45100    1480.4413   -10809.485            0   -10350.408    15120.371 
   45200     1522.717    -10810.84            0   -10338.653     15552.15 
   45300     1505.271   -10804.391            0   -10337.613    15373.967 
   45400    1518.1097   -10809.898            0    -10339.14    15505.094 
   45500     1494.407   -10824.122            0   -10360.714    15263.008 
   45600    1464.3279    -10820.91            0   -10366.829    14955.798 
   45700    1487.3596   -10816.872            0   -10355.649     15191.03 
   45800    1508.0533   -10811.847            0   -10344.207    15402.384 
   45900    1509.3483   -10809.405            0   -10341.364     15415.61 
   46000    1503.2307   -10814.005            0    -10347.86    15353.128 
   46100    1528.0564   -10825.435            0   -10351.592    15606.683 
   46200    1454.4822   -10817.176            0   -10366.148     14855.24 
   46300    1482.3164   -10831.069            0    -10371.41    15139.522 
   46400    1477.9535   -10816.965            0   -10358.659    15094.962 
   46500    1497.1938   -10807.022            0    -10342.75    15291.471 
   46600    1530.5583   -10811.464            0   -10336.845    15632.237 
   46700    1511.3978   -10811.443            0   -10342.766    15436.542 
   46800    1514.0862   -10829.149            0   -10359.639        15464 
   46900    1462.8909   -10818.894            0   -10365.258    14941.121 
   47000    1489.9836   -10821.408            0   -10359.372     15217.83 
   47100    1490.1991   -10817.987            0   -10355.884    15220.032 
   47200     1501.572   -10816.911            0   -10351.281    15336.187 
   47300    1512.4686    -10804.39            0   -10335.381    15447.479 
   47400    1500.9134   -10796.146            0    -10330.72    15329.461 
   47500    1500.2724   -10810.043            0   -10344.816    15322.914 
   47600    1456.9352    -10810.55            0   -10358.761    14880.293 
   47700    1489.4279   -10819.945            0   -10358.081    15212.155 
   47800    1463.5646   -10809.188            0   -10355.343    14948.002 
   47900    1506.7953   -10814.061            0   -10346.811    15389.535 
   48000    1491.8121   -10799.946            0   -10337.343    15236.506 
   48100    1532.4513   -10800.185            0   -10324.979     15651.57 
   48200    1536.2064   -10802.745            0   -10326.375    15689.923 
   48300     1486.963   -10806.705            0   -10345.605    15186.979 
   48400    1512.7024   -10819.418            0   -10350.336    15449.867 
   48500    1489.1408   -10813.211            0   -10351.436    15209.223 
   48600    1494.5088    -10813.31            0    -10349.87    15264.048 
   48700    1511.7181   -10811.551            0   -10342.774    15439.814 
   48800     1527.562   -10811.595            0   -10337.905    15601.634 
   48900    1486.7724   -10811.918            0   -10350.877    15185.033 
   49000    1480.3396     -10821.1            0   -10362.054    15119.332 
   49100    1489.5722   -10819.387            0   -10357.478    15213.628 
   49200    1505.8313   -10805.016            0   -10338.065    15379.689 
   49300    1526.2152   -10803.575            0   -10330.303    15587.878 
   49400    1533.4105   -10812.866            0   -10337.363    15661.367 
   49500    1505.8299   -10820.136            0   -10353.185    15379.675 
   49600    1469.3892    -10817.53            0    -10361.88    15007.491 
   49700    1514.2022   -10834.794            0   -10365.247    15465.185 
   49800    1500.3925   -10820.258            0   -10354.993     15324.14 
   49900    1525.0088   -10808.858            0   -10335.961    15575.557 
   50000    1509.8865   -10805.713            0   -10337.505    15421.106 
Loop time of 15804.3 on 1 procs for 50000 steps with 2400 atoms

Performance: 0.273 ns/day, 87.802 hours/ns, 3.164 timesteps/s
91.8% CPU use with 1 MPI tasks x 1 OpenMP threads

MPI task timing breakdown:
Section |  min time  |  avg time  |  max time  |%varavg| %total
---------------------------------------------------------------
Pair    | 15758      | 15758      | 15758      |   0.0 | 99.71
Neigh   | 38.147     | 38.147     | 38.147     |   0.0 |  0.24
Comm    | 3.5105     | 3.5105     | 3.5105     |   0.0 |  0.02
Output  | 0.01687    | 0.01687    | 0.01687    |   0.0 |  0.00
Modify  | 3.6438     | 3.6438     | 3.6438     |   0.0 |  0.02
Other   |            | 0.9977     |            |       |  0.01

Nlocal:        2400.00 ave        2400 max        2400 min
Histogram: 1 0 0 0 0 0 0 0 0 0
Nghost:        4948.00 ave        4948 max        4948 min
Histogram: 1 0 0 0 0 0 0 0 0 0
Neighs:         0.00000 ave           0 max           0 min
Histogram: 1 0 0 0 0 0 0 0 0 0
FullNghs:      252958.0 ave      252958 max      252958 min
Histogram: 1 0 0 0 0 0 0 0 0 0

Total # of neighbors = 252958
Ave neighs/atom = 105.39917
Neighbor list builds = 2498
Dangerous builds = 0

velocity        all scale ${Tsim}
velocity        all scale 1500
unfix           1

#-----------------------------------------
# 2nd equilibration run
compute         ke all ke/atom
variable        temp atom c_ke/1.5

fix             1 all nve

compute         layers all chunk/atom bin/1d z lower 0.05 units reduced # <--- delta z ?
fix             2 all ave/chunk 10 100 1000 layers v_temp file profile.mp # <--- use every 10 steps, 100 times, repeat every 1000 steps
fix             3 all thermal/conductivity 10 z 20 # <--- perform kintic energy swap every 10 steps, using 20 bins

variable        tdiff equal f_2[11][3]-f_2[1][3]
thermo_style    custom step temp epair etotal f_3 v_tdiff
thermo          1000
#thermo_modify   colname f_3 E_delta colname v_tdiff dTemp_step


run 200000
Per MPI rank memory allocation (min/avg/max) = 4.235 | 4.235 | 4.235 Mbytes
Step Temp E_pair TotEng f_3 v_tdiff 
   50000         1500   -10805.714   -10340.571            0            0 
   51000    1459.2541   -10793.061   -10340.553    61.235206  0.035322814 
   52000    1532.4921   -10815.782   -10340.564    116.24541  0.061025257 
   53000    1510.3146   -10808.917   -10340.576    172.31415  0.075532838 
   54000    1520.9753   -10812.213   -10340.566    223.28895  0.081176894 
   55000    1510.5921   -10808.997    -10340.57    275.13007  0.072485149 
   56000    1499.8348    -10805.68   -10340.588    325.87684  0.078718717 
   57000    1523.7865   -10813.107   -10340.589     375.7981  0.084059004 
   58000    1496.7811   -10804.722   -10340.577    421.62233  0.075281441 
   59000    1508.2204    -10808.26   -10340.568    470.30211  0.082418793 
   60000    1509.7275   -10808.729   -10340.569    520.79757  0.077406557 
   61000    1487.5754   -10801.866   -10340.576    571.36401  0.084586723 
   62000    1501.1146   -10806.081   -10340.593    619.50858  0.077000398 
   63000    1525.4507   -10813.626   -10340.591    669.08926  0.079981884 
   64000    1485.3659   -10801.189   -10340.585    720.88123  0.084749438 
   65000    1516.9861   -10810.992   -10340.582    771.52121  0.085896287 
   66000    1512.2164   -10809.525   -10340.595     820.8847   0.08836902 
   67000    1542.1082   -10818.803   -10340.603    872.96891  0.079653203 
   68000    1508.9222    -10808.51     -10340.6    922.89049  0.084036717 
   69000    1504.0821   -10807.002   -10340.593    972.21586  0.090705869 
   70000    1521.3742   -10812.397   -10340.627    1021.6692  0.083937925 
   71000    1525.2567   -10813.608   -10340.634    1070.4735  0.080510646 
   72000    1521.2822   -10812.364   -10340.622    1120.4032  0.085424733 
   73000    1497.9737   -10805.143   -10340.628    1169.1708  0.076714999 
   74000    1527.7062   -10814.335   -10340.601    1220.5874  0.074357917 
   75000    1500.3401    -10805.88   -10340.632    1270.1448  0.079002248 
   76000    1520.0857   -10811.987   -10340.616    1321.8035  0.078821718 
   77000    1506.0795    -10807.67   -10340.642    1371.1872  0.076618995 
   78000    1527.3088   -10814.249   -10340.638    1418.7608  0.083281849 
   79000    1524.0071   -10813.245   -10340.658    1466.4855   0.07938128 
   80000     1551.008   -10821.613   -10340.653    1518.0351  0.072761215 
   81000    1515.6421    -10810.65   -10340.657    1567.8364  0.076070437 
   82000    1505.2318   -10807.417   -10340.652    1619.4132  0.077874209 
   83000    1501.2363   -10806.162   -10340.636    1669.4582  0.078435297 
   84000    1518.0081    -10811.38   -10340.653    1717.0762  0.074265282 
   85000    1505.8265   -10807.603   -10340.653    1766.2132  0.076592597 
   86000    1545.0433   -10819.759   -10340.648    1817.2373  0.086216834 
   87000    1541.6489   -10818.671   -10340.613     1868.911  0.085407367 
   88000    1522.2634   -10812.688   -10340.641    1918.1553  0.077998765 
   89000    1557.4129   -10823.578   -10340.632    1967.9066  0.091727311 
   90000    1504.9422   -10807.312   -10340.636    2022.3766  0.080211603 
   91000      1518.29   -10811.481   -10340.667    2074.3881  0.086525986 
   92000    1506.9137   -10807.933   -10340.646    2125.6375  0.074932433 
   93000    1489.0517   -10802.386   -10340.638    2175.0448  0.085501812 
   94000    1511.8912   -10809.465   -10340.635    2226.2185  0.084710968 
   95000     1495.038   -10804.241   -10340.637    2275.9339  0.082299875 
   96000    1497.2926   -10804.962   -10340.659    2325.0602  0.078756534 
   97000    1506.6284    -10807.84   -10340.642    2373.4481  0.081793289 
   98000    1513.7401   -10810.031   -10340.628    2423.6674  0.085268441 
   99000    1518.7336   -10811.578   -10340.626    2473.5489  0.080396294 
  100000    1537.7685   -10817.481   -10340.627    2522.2233  0.085980992 
  101000    1509.0958    -10808.59   -10340.627    2569.3649  0.084103002 
  102000    1506.0575   -10807.651    -10340.63    2617.9914  0.087001909 
  103000    1521.2658   -10812.366   -10340.629    2665.3443  0.086033151 
  104000    1542.0146   -10818.808   -10340.636    2714.1223  0.084441476 
  105000    1514.0998   -10810.138   -10340.623     2761.946  0.081818071 
  106000    1511.1708   -10809.246   -10340.639    2811.3483  0.084481264 
  107000    1497.1523   -10804.879   -10340.619    2862.3944  0.074612532 
  108000    1533.4181   -10816.156   -10340.651    2910.0693  0.084909684 
  109000     1481.928   -10800.169    -10340.63    2958.2295  0.081739101 
  110000    1565.8653   -10826.209   -10340.642    3008.1939     0.080844 
  111000     1525.024   -10813.553    -10340.65    3059.1293  0.079674681 
  112000    1500.5211    -10805.96   -10340.656    3108.5522   0.08518063 
  113000    1527.6567    -10814.37   -10340.651    3160.6104  0.079949974 
  114000    1482.6791   -10800.403   -10340.632    3207.6833  0.084401408 
  115000     1501.589   -10806.301   -10340.665    3258.2929  0.084174451 
  116000    1503.8026    -10806.96   -10340.638    3308.7815  0.084595642 
  117000    1518.7558   -10811.624   -10340.665    3357.1757  0.077026722 
  118000    1525.8124   -10813.782   -10340.635    3405.1926  0.080433785 
  119000    1505.0322   -10807.337   -10340.634    3454.6326  0.076764634 
  120000    1504.3104   -10807.131   -10340.652    3501.3302  0.080802254 
  121000    1502.9567   -10806.722   -10340.662    3550.5718  0.072852278 
  122000    1525.7573   -10813.766   -10340.636     3601.249  0.075257814 
  123000    1509.4702    -10808.73   -10340.651    3650.3835   0.08082702 
  124000    1487.6996   -10801.952   -10340.624    3698.9309  0.088571322 
  125000    1489.5578   -10802.546   -10340.641    3748.1448  0.089484116 
  126000     1528.008   -10814.467   -10340.639    3794.1185  0.088712657 
  127000    1531.9218   -10815.683   -10340.641    3844.3615  0.091562932 
  128000    1543.2564    -10819.21   -10340.654    3892.8039  0.087085767 
  129000    1531.8201    -10815.65   -10340.641    3942.3698  0.087712634 
  130000    1495.7932   -10804.481   -10340.643    3992.3981  0.080412934 
  131000    1509.6755   -10808.812    -10340.67    4043.5325  0.087959233 
  132000    1533.9187   -10816.312   -10340.652    4094.0559  0.083170832 
  133000    1515.4363   -10810.578   -10340.649    4141.5123  0.081086219 
  134000    1500.6253   -10805.969   -10340.632    4192.0049  0.085599722 
  135000    1502.8183   -10806.678   -10340.661    4244.0099  0.077092433 
  136000     1525.882   -10813.812   -10340.643    4295.1586  0.079886769 
  137000    1514.7386   -10810.362   -10340.649    4345.8709  0.078864571 
  138000    1502.1315   -10806.458   -10340.654    4393.8678  0.081820711 
  139000    1495.7941   -10804.478   -10340.639    4443.1953  0.082399904 
  140000    1520.8072    -10812.27   -10340.675    4494.2622  0.079052978 
  141000    1517.9318   -10811.363    -10340.66    4541.1562  0.089822642 
  142000    1503.9091   -10807.006   -10340.651    4587.3476    0.0836279 
  143000     1510.055   -10808.918   -10340.657    4635.4997  0.079967014 
  144000    1509.9567   -10808.897   -10340.667    4687.2867  0.074715751 
  145000    1491.2069   -10803.076    -10340.66    4736.1007  0.078149178 
  146000     1505.029   -10807.361   -10340.659    4785.8695  0.087133822 
  147000    1495.8602   -10804.521   -10340.663    4832.4933  0.084835816 
  148000    1513.2546   -10809.943   -10340.691     4881.852  0.081750891 
  149000    1507.3755   -10808.106   -10340.677    4929.7308  0.086412251 
  150000    1531.1625   -10815.473   -10340.667    4980.6213  0.075467684 
  151000    1500.7384   -10806.028   -10340.657    5032.8855  0.070467822 
  152000    1524.2097   -10813.318   -10340.668     5083.201  0.079882348 
  153000    1526.1913   -10813.932   -10340.667    5133.8904  0.078555167 
  154000    1509.4949   -10808.735   -10340.648    5184.9346  0.076617261 
  155000    1481.0667   -10799.931   -10340.659    5236.3759  0.078276293 
  156000    1495.4045   -10804.354   -10340.636    5286.1545  0.081003976 
  157000    1524.0977   -10813.278   -10340.663    5335.7547  0.076993819 
  158000     1489.672   -10802.594   -10340.654    5383.2522  0.081959106 
  159000    1510.1973   -10808.953   -10340.648    5434.1545  0.076136157 
  160000     1544.251   -10819.521   -10340.656    5484.0364  0.085350868 
  161000    1516.8618   -10811.019   -10340.647    5531.8279   0.08725822 
  162000    1533.5902   -10816.227   -10340.668    5581.6144  0.074345405 
  163000    1485.9945   -10801.416   -10340.616    5632.4689  0.084242379 
  164000    1508.4349   -10808.402   -10340.644    5683.6919   0.08209399 
  165000    1512.9831   -10809.826   -10340.658    5732.3901  0.083702386 
  166000    1516.9717   -10811.072   -10340.667    5783.4477  0.083787949 
  167000    1538.0761   -10817.627   -10340.677    5835.2514  0.078992279 
  168000    1484.0088   -10800.867   -10340.683    5881.4899  0.079987412 
  169000    1508.6317   -10808.518   -10340.698    5931.1231  0.085019031 
  170000    1519.5574   -10811.906   -10340.699    5980.4719  0.084575133 
  171000    1504.1078   -10807.105   -10340.689    6030.8961   0.08027131 
  172000    1530.9344   -10815.439   -10340.704    6079.9069  0.078925191 
  173000    1509.4718   -10808.761   -10340.681    6129.8327  0.073503583 
  174000    1498.8691   -10805.494   -10340.702    6180.1645  0.081339031 
  175000     1517.317   -10811.228   -10340.715    6233.8096  0.075523851 
  176000    1543.6684   -10819.404    -10340.72    6282.2188  0.082276501 
  177000     1519.902   -10812.042   -10340.728    6330.5478  0.080699128 
  178000    1540.5294   -10818.443   -10340.733    6383.2208  0.084545575 
  179000    1509.3816   -10808.795   -10340.743    6433.2947  0.079890068 
  180000    1542.7819   -10819.125   -10340.716    6483.5515  0.088698235 
  181000    1534.3198   -10816.523   -10340.738    6531.8651  0.089740097 
  182000    1506.7242    -10807.97   -10340.742    6580.6842  0.082963906 
  183000    1510.6662   -10809.167   -10340.717    6627.2942  0.082660103 
  184000    1554.8625   -10822.886   -10340.731    6678.0796  0.077437707 
  185000    1508.6297   -10808.553   -10340.734    6725.6546  0.078632205 
  186000    1517.3643   -10811.264   -10340.736    6778.1017  0.076533369 
  187000    1531.5406   -10815.659   -10340.736    6825.3123   0.08671959 
  188000    1503.5704   -10806.958   -10340.708    6874.9474  0.078874447 
  189000    1491.1551   -10803.099   -10340.699    6924.7705  0.083643791 
  190000    1551.6486   -10821.875   -10340.716    6972.3185  0.079244559 
  191000      1507.59   -10808.215   -10340.719     7022.192  0.088632292 
  192000    1535.9607   -10817.007   -10340.713     7070.975   0.08105025 
  193000     1533.203   -10816.153   -10340.715    7122.3324  0.084999036 
  194000    1525.4331   -10813.744   -10340.715    7171.3879  0.083692551 
  195000    1532.4285   -10815.899   -10340.701    7224.4281  0.081043609 
  196000     1510.641   -10809.124   -10340.682    7273.5983  0.079527971 
  197000    1532.7122   -10815.987   -10340.701    7322.5535  0.073555781 
  198000    1515.7485   -10810.733   -10340.707    7371.3298  0.084101274 
  199000    1522.1389   -10812.722   -10340.714    7420.5151  0.076675961 
  200000    1524.9953    -10813.63   -10340.736    7468.2781   0.07750156 
  201000    1504.0553   -10807.124   -10340.724    7518.3336  0.075804775 
  202000    1493.8824   -10803.973   -10340.727    7569.0822  0.076632143 
  203000    1485.4464   -10801.345   -10340.715     7618.896  0.085821452 
  204000     1516.069   -10810.848   -10340.722    7668.3571  0.078104638 
  205000    1510.8114   -10809.243   -10340.748    7719.0518  0.068151987 
  206000    1534.3522   -10816.557   -10340.762    7767.6595    0.0777484 
  207000    1506.9561   -10808.037   -10340.737     7818.913  0.082590937 
  208000    1536.0633   -10817.089   -10340.763    7867.3022  0.082555079 
  209000    1480.2302   -10799.743   -10340.731    7917.9992  0.082145326 
  210000    1518.1034   -10811.512   -10340.755    7969.1961  0.084327492 
  211000     1511.012   -10809.312   -10340.755    8015.4009  0.084661083 
  212000    1500.7981   -10806.138   -10340.748    8062.4231  0.084148432 
  213000    1556.3923   -10823.409    -10340.78    8110.4411  0.088753865 
  214000    1553.6282   -10822.536   -10340.764    8156.8932  0.082506919 
  215000    1525.9806   -10813.955   -10340.756    8205.8847  0.080393132 
  216000      1518.89   -10811.756   -10340.756    8256.2584  0.075515067 
  217000    1503.8087   -10807.074   -10340.751    8305.9271  0.083785959 
  218000    1538.1174   -10817.731   -10340.769     8353.052  0.096123458 
  219000    1531.8847   -10815.779   -10340.749    8401.6304  0.081997191 
  220000    1531.1308   -10815.564   -10340.768    8448.9992  0.085805898 
  221000    1476.1027   -10798.461   -10340.729    8496.7358  0.089728021 
  222000    1519.8208   -10812.052   -10340.763    8547.6388  0.075646848 
  223000    1494.0495   -10804.045   -10340.748    8598.6397  0.077761203 
  224000    1512.3473   -10809.725   -10340.753    8645.5623    0.0780986 
  225000    1498.3038   -10805.366    -10340.75    8694.9879  0.088724832 
  226000    1528.6739   -10814.789   -10340.755    8744.6167  0.089423021 
  227000    1534.0795   -10816.471    -10340.76     8792.539  0.075963213 
  228000    1552.7759   -10822.282   -10340.774    8844.5374  0.073629131 
  229000    1492.9599   -10803.736   -10340.777    8893.1887  0.077174182 
  230000    1518.9439   -10811.813   -10340.796    8942.4483    0.0731078 
  231000    1500.9231   -10806.186   -10340.757    8992.7713  0.083651707 
  232000    1521.4247   -10812.544   -10340.758    9042.6998  0.070800603 
  233000    1524.2828   -10813.473     -10340.8    9094.8749  0.084041617 
  234000    1478.3153   -10799.206   -10340.788    9145.3649  0.074777893 
  235000    1528.4232   -10814.759   -10340.802    9196.4111  0.081731106 
  236000    1544.4689   -10819.712    -10340.78    9246.1159  0.080911931 
  237000    1531.2165   -10815.601   -10340.778    9295.6624  0.076995326 
  238000    1510.4195    -10809.16   -10340.786    9347.3308  0.083751175 
  239000    1539.1423   -10818.082   -10340.802    9398.1158  0.080591955 
  240000    1511.0112   -10809.355   -10340.798    9449.4769  0.082998496 
  241000    1516.0097   -10810.913   -10340.806    9498.4954  0.082308803 
  242000    1519.4364   -10811.995   -10340.825    9546.0091  0.084876035 
  243000    1527.6085   -10814.491   -10340.787    9593.7986  0.085027112 
  244000    1481.2289    -10800.06   -10340.738    9643.5544  0.086353078 
  245000    1498.9099   -10805.583   -10340.778      9693.32  0.079117711 
  246000    1523.8063   -10813.275   -10340.751    9742.2134   0.07668076 
  247000    1520.4892   -10812.279   -10340.783    9790.0345  0.071690523 
  248000    1492.6411   -10803.636   -10340.775    9839.5548  0.076482662 
  249000    1530.3889   -10815.354   -10340.788    9890.6178  0.081445144 
  250000    1531.6194   -10815.738   -10340.791    9941.0887  0.085474578 
Loop time of 52876.8 on 1 procs for 200000 steps with 2400 atoms

Performance: 0.327 ns/day, 73.440 hours/ns, 3.782 timesteps/s
93.4% CPU use with 1 MPI tasks x 1 OpenMP threads

MPI task timing breakdown:
Section |  min time  |  avg time  |  max time  |%varavg| %total
---------------------------------------------------------------
Pair    | 52703      | 52703      | 52703      |   0.0 | 99.67
Neigh   | 146.45     | 146.45     | 146.45     |   0.0 |  0.28
Comm    | 13.137     | 13.137     | 13.137     |   0.0 |  0.02
Output  | 0.0062412  | 0.0062412  | 0.0062412  |   0.0 |  0.00
Modify  | 10.588     | 10.588     | 10.588     |   0.0 |  0.02
Other   |            | 3.958      |            |       |  0.01

Nlocal:        2400.00 ave        2400 max        2400 min
Histogram: 1 0 0 0 0 0 0 0 0 0
Nghost:        5051.00 ave        5051 max        5051 min
Histogram: 1 0 0 0 0 0 0 0 0 0
Neighs:         0.00000 ave           0 max           0 min
Histogram: 1 0 0 0 0 0 0 0 0 0
FullNghs:      253126.0 ave      253126 max      253126 min
Histogram: 1 0 0 0 0 0 0 0 0 0

Total # of neighbors = 253126
Ave neighs/atom = 105.46917
Neighbor list builds = 10559
Dangerous builds = 0

#------------------------------------------
# thermal conductivity calculation
# reset fix thermal/conductivity to zero energy accumulation
fix             3 all thermal/conductivity 10 z 20

variable start_time equal time
variable kappa equal (f_3/(time-${start_time})/(lx*ly)/2.0)*(lz/2.0)/f_ave
variable kappa equal (f_3/(time-250)/(lx*ly)/2.0)*(lz/2.0)/f_ave

fix             ave all ave/time 1 1 1000 v_tdiff ave running
thermo_style    custom step temp epair etotal f_3 v_tdiff f_ave
# thermo_modify   colname f_3 E_delta colname v_tdiff dTemp_step colname f_ave dTemp

run 200000
Per MPI rank memory allocation (min/avg/max) = 4.486 | 4.486 | 4.486 Mbytes
Step Temp E_pair TotEng f_3 v_tdiff f_ave 
  250000    1531.6194   -10815.737    -10340.79            0  0.085474578  0.085474578 
  251000    1517.4636    -10811.33   -10340.772    51.026234  0.072477625  0.078976101 
  252000    1513.0925    -10809.97   -10340.767    98.876918  0.079063948  0.079005384 
  253000    1501.9595   -10806.528   -10340.778    146.35929  0.085079955  0.080524026 
  254000    1538.5689    -10817.89   -10340.787    195.91615  0.080276484  0.080474518 
  255000    1511.2369   -10809.442   -10340.815    243.13871  0.083219146  0.080931956 
  256000    1524.5885   -10813.571   -10340.804    292.52825  0.081410119  0.081000265 
  257000    1499.0897   -10805.632   -10340.771    343.15578   0.07766266  0.080583064 
  258000    1478.2395    -10799.16   -10340.765     390.2738  0.077561983  0.080247389 
  259000    1510.5191   -10809.195   -10340.791    439.82446  0.073169731  0.079539623 
  260000    1490.5751   -10803.025   -10340.805    487.77299  0.081830045  0.079747843 
  261000     1515.055   -10810.629   -10340.818    536.00788  0.082845504  0.080005981 
  262000    1521.3483   -10812.582   -10340.819    584.86306   0.07699551  0.079774407 
  263000    1524.3997   -10813.521   -10340.812    634.40947  0.080128269  0.079799683 
  264000    1515.5395   -10810.774   -10340.813    684.01035   0.07544076  0.079509088 
  265000    1500.3506   -10806.069   -10340.818    734.83915  0.084168213  0.079800283 
  266000    1507.3445   -10808.227   -10340.806    785.18085  0.077747331  0.079679521 
  267000    1524.3321   -10813.505   -10340.817    836.59653  0.074205557  0.079375412 
  268000    1500.9448   -10806.231   -10340.796    888.60299  0.077266451  0.079264414 
  269000    1471.6513   -10797.152   -10340.801    939.49606  0.075884151  0.079095401 
  270000     1504.528   -10807.354   -10340.808    987.89328  0.075460961  0.078922332 
  271000    1526.2818   -10814.099   -10340.806    1038.5812  0.079865849   0.07896522 
  272000    1505.2189   -10807.593   -10340.832    1087.6838  0.080845611  0.079046976 
  273000    1516.2555   -10810.994   -10340.811    1136.3377  0.081109615  0.079132919 
  274000    1532.2331   -10815.943   -10340.805    1185.6281   0.08135965  0.079221988 
  275000    1509.9439   -10809.013   -10340.787    1236.5238  0.076677034  0.079124105 
  276000    1560.8806   -10824.867   -10340.846    1285.8161  0.091110547  0.079568048 
  277000    1534.1148   -10816.535   -10340.814    1333.8223  0.080386756  0.079597287 
  278000    1505.7121   -10807.719   -10340.805    1383.3882  0.071614779  0.079322028 
  279000    1530.3971    -10815.38   -10340.811    1435.1256  0.073541556  0.079129346 
  280000    1504.5191   -10807.353   -10340.809    1484.9647  0.080790819  0.079182942 
  281000    1510.0687   -10809.065   -10340.801    1534.8486  0.083231444  0.079309458 
  282000    1501.3639   -10806.355    -10340.79    1583.9569  0.085339281  0.079492179 
  283000    1498.1107   -10805.353   -10340.796    1634.0872  0.083497732   0.07960999 
  284000    1511.9414   -10809.637   -10340.791     1683.992  0.081779743  0.079671983 
  285000    1498.8557    -10805.58   -10340.792    1734.9892  0.075063468  0.079543968 
  286000    1522.6107   -10812.974    -10340.82    1783.3372  0.078294532    0.0795102 
  287000    1516.6524   -10811.128   -10340.821    1834.0821  0.081661816  0.079566821 
  288000    1515.2726   -10810.684   -10340.805      1884.46  0.077656048  0.079517827 
  289000    1516.8907   -10811.188   -10340.808    1938.8247  0.080164207  0.079533987 
  290000    1514.0121   -10810.291   -10340.803    1989.4724  0.084605088  0.079657672 
  291000     1543.181   -10819.358   -10340.826    2039.7253  0.085051917  0.079786106 
  292000    1506.1037   -10807.858   -10340.823    2090.5664  0.078765114  0.079762362 
  293000     1499.042   -10805.686    -10340.84     2140.453  0.079126172  0.079747904 
  294000    1525.8182   -10814.002   -10340.853    2191.3664  0.083331594  0.079827541 
  295000    1502.7464   -10806.826   -10340.832    2239.7005   0.08335027  0.079904122 
  296000    1502.1956   -10806.634    -10340.81    2288.4424  0.078234935  0.079868608 
  297000    1478.3538   -10799.241   -10340.811     2339.164  0.080710308  0.079886143 
  298000    1504.5501   -10807.385   -10340.831    2387.7639  0.088871884  0.080069525 
  299000    1525.6282   -10813.918   -10340.828    2435.4076  0.084873581  0.080165607 
  300000    1506.1557   -10807.873   -10340.822     2482.707  0.085221591  0.080264744 
  301000     1504.998   -10807.498   -10340.806    2532.7813  0.083716101  0.080331116 
  302000    1503.2427   -10806.958    -10340.81    2580.5908   0.08509654  0.080421029 
  303000    1507.3639    -10808.23   -10340.804    2628.3617  0.083152167  0.080471606 
  304000    1504.4009   -10807.345   -10340.837    2677.7105  0.086345687  0.080578408 
  305000    1522.7756   -10813.041   -10340.836    2726.6555  0.082569621  0.080613965 
  306000     1511.356   -10809.514    -10340.85    2774.8246  0.075930508  0.080531799 
  307000    1528.1289   -10814.725   -10340.859    2827.8224  0.081193572  0.080543209 
  308000    1526.3863   -10814.163   -10340.838    2877.8829  0.085618277  0.080629227 
  309000       1507.3   -10808.234   -10340.828    2927.7272  0.085630869  0.080712588 
  310000    1524.4806   -10813.593   -10340.859    2978.2798  0.085608982  0.080792856 
  311000    1537.0161   -10817.486   -10340.865    3030.0861  0.080671497  0.080790899 
  312000    1521.2469   -10812.573   -10340.842    3080.5488  0.080838829   0.08079166 
  313000    1542.6691   -10819.273   -10340.899    3128.0343  0.086205485  0.080876251 
  314000    1515.1811   -10810.708   -10340.858    3173.8056  0.086380909  0.080960938 
  315000     1507.404   -10808.304   -10340.865    3222.6186  0.087661937  0.081062468 
  316000    1501.6413   -10806.505   -10340.853    3271.8748  0.079938297   0.08104569 
  317000    1501.1373   -10806.341   -10340.846    3324.3224  0.081010284  0.081045169 
  318000    1512.5436   -10809.921   -10340.889    3372.4584  0.076055832   0.08097286 
  319000    1531.9037   -10815.912   -10340.876    3421.1236  0.083645328  0.081011038 
  320000    1486.6724   -10801.873   -10340.863    3468.7063  0.081424403   0.08101686 
  321000    1484.4115   -10801.167   -10340.858    3514.1944  0.093137458  0.081185201 
  322000    1512.7417   -10809.989   -10340.895    3561.9394  0.087610247  0.081273216 
  323000     1504.712   -10807.506   -10340.902    3613.5526  0.091055737  0.081405412 
  324000    1532.4118   -10816.091   -10340.897    3662.8569  0.082428454  0.081419053 
  325000    1543.3687   -10819.491     -10340.9    3710.2375   0.08481346  0.081463716 
  326000    1521.6535   -10812.759   -10340.902    3759.3546  0.081791825  0.081467977 
  327000    1511.8882   -10809.705   -10340.876    3806.4413  0.084607224  0.081508224 
  328000    1507.0037   -10808.214   -10340.899    3858.2552  0.082233362  0.081517403 
  329000    1520.2513   -10812.315   -10340.893    3906.5583   0.08861795   0.08160616 
  330000    1541.0426   -10818.771   -10340.901    3954.6353  0.092380802   0.08173918 
  331000    1488.7939   -10802.561   -10340.893    4004.0871  0.079838234  0.081715998 
  332000    1518.7945   -10811.878   -10340.907    4054.1546   0.07821637  0.081673833 
  333000    1511.4381   -10809.598   -10340.908    4105.1987  0.079838774  0.081651987 
  334000    1511.2094   -10809.515   -10340.896    4154.2156  0.086160056  0.081705024 
  335000    1562.8238   -10825.559   -10340.935    4201.9058  0.085460188  0.081748688 
  336000    1527.5996   -10814.623   -10340.922    4252.4539  0.083249499  0.081765939 
  337000    1500.7568   -10806.293   -10340.916    4301.2119  0.086832906  0.081823518 
  338000    1547.4912   -10820.797   -10340.927    4350.9972  0.081426533  0.081819058 
  339000    1521.5036   -10812.728   -10340.917    4399.9028  0.080216456  0.081801251 
  340000    1550.2067   -10821.618   -10340.907    4451.8979   0.07770094  0.081756193 
  341000    1495.6897   -10804.745   -10340.939    4503.8698   0.06870852   0.08161437 
  342000    1519.0423   -10811.987    -10340.94    4553.9978  0.080272543  0.081599942 
  343000    1517.0214   -10811.344   -10340.923    4604.3664  0.088497251  0.081673317 
  344000    1519.3524    -10812.07   -10340.927    4653.4543  0.083590024  0.081693493 
  345000    1512.9302   -10810.045   -10340.893    4701.8739  0.083384434  0.081711107 
  346000    1507.5331   -10808.398    -10340.92    4752.8707   0.08284523  0.081722799 
  347000    1470.1475   -10796.807   -10340.921    4801.0789  0.078249333  0.081687356 
  348000    1513.9674   -10810.395   -10340.921     4852.373  0.078381673  0.081653965 
  349000    1521.0917   -10812.613    -10340.93    4904.0782  0.078542566  0.081622851 
  350000    1537.3506   -10817.692   -10340.968    4952.4078  0.089869818  0.081704504 
  351000    1524.0576    -10813.55   -10340.947    5002.0558  0.090228132  0.081788069 
  352000    1496.9384   -10805.099   -10340.905    5050.3902  0.086268091  0.081831564 
  353000     1517.295   -10811.441   -10340.936    5099.2106  0.076154146  0.081776974 
  354000    1506.7749   -10808.215   -10340.971    5149.3912  0.077017524  0.081731646 
  355000    1528.3401    -10814.91   -10340.979    5200.2117  0.080530456  0.081720314 
  356000    1511.2402   -10809.596   -10340.968     5251.157  0.082597174  0.081728509 
  357000    1526.0464   -10814.192   -10340.973    5304.1055  0.081104292  0.081722729 
  358000    1540.2426    -10818.59   -10340.968     5352.493  0.087579925  0.081776465 
  359000    1501.1789   -10806.455   -10340.947    5400.4944  0.075186212  0.081716553 
  360000    1511.6187   -10809.691   -10340.946    5451.4275  0.069731288  0.081608578 
  361000    1516.5984   -10811.229   -10340.939    5500.6422  0.088764357  0.081672469 
  362000    1517.3105   -10811.462   -10340.951     5547.148  0.082437533  0.081679239 
  363000    1500.4791   -10806.224   -10340.932    5595.5555  0.078054681  0.081647445 
  364000    1513.6258   -10810.312   -10340.944    5642.8608  0.081251277     0.081644 
  365000     1507.186   -10808.315   -10340.944    5692.9539  0.081730233  0.081644743 
  366000    1516.2239   -10811.091   -10340.917    5742.2387  0.078455917  0.081617488 
  367000    1485.5869   -10801.619   -10340.946     5791.463  0.083467499  0.081633167 
  368000    1539.9444   -10818.508   -10340.979    5840.5883  0.076487398  0.081589925 
  369000    1492.0688   -10803.635   -10340.952    5894.0376  0.085798721  0.081624998 
  370000    1512.9507   -10810.097   -10340.938    5944.0537  0.078267586  0.081597251 
  371000     1510.874   -10809.473   -10340.958    5995.1447  0.076160575  0.081552688 
  372000      1530.25   -10815.481   -10340.958    6043.9143  0.081388769  0.081551355 
  373000      1539.21   -10818.234   -10340.933    6096.0206  0.088004726  0.081603399 
  374000    1526.0368   -10814.154   -10340.938    6144.6204  0.093301392  0.081696983 
  375000    1489.2738    -10802.78   -10340.964    6193.9211   0.08942468  0.081758313 
  376000    1503.8147   -10807.252   -10340.926    6242.9985  0.088628597   0.08181241 
  377000    1487.4521   -10802.173   -10340.921    6293.6543   0.07507913  0.081759806 
  378000    1516.0875   -10811.064   -10340.933    6340.8359  0.078136183  0.081731716 
  379000     1497.782   -10805.391   -10340.936    6387.7089  0.076381299  0.081690559 
  380000    1520.9216   -10812.554   -10340.923    6435.9555  0.084445728  0.081711591 
  381000    1528.9464   -10815.045   -10340.926    6484.4792  0.077123909  0.081676836 
  382000    1536.8452   -10817.501   -10340.933    6533.2361  0.083332495  0.081689285 
  383000    1519.2958   -10812.062   -10340.935     6583.995  0.081567038  0.081688372 
  384000    1508.1011   -10808.601   -10340.946    6631.0416  0.079944123  0.081675452 
  385000    1519.0755   -10812.002   -10340.944    6681.4445  0.081084672  0.081671108 
  386000    1519.9716   -10812.275    -10340.94    6729.7301  0.085156204  0.081696547 
  387000    1516.4343   -10811.182   -10340.943    6776.8343  0.082353944   0.08170131 
  388000    1510.9549   -10809.481   -10340.942    6825.4994  0.086333961  0.081734639 
  389000    1509.8225   -10809.115   -10340.927    6874.7622  0.088896175  0.081785793 
  390000    1530.1465   -10815.427   -10340.936    6924.5461  0.087729919  0.081827949 
  391000    1507.4753     -10808.4    -10340.94    6973.0191   0.07409843  0.081773516 
  392000    1525.9511   -10814.158   -10340.968    7024.3758  0.082663123  0.081779737 
  393000    1515.2943   -10810.847   -10340.961    7074.6158  0.090167904  0.081837988 
  394000    1558.3369   -10824.226   -10340.993    7127.3968  0.092210582  0.081909524 
  395000     1515.165   -10810.823   -10340.978    7174.7439  0.089012997  0.081958177 
  396000    1506.8777   -10808.251   -10340.976    7224.5244  0.082352302  0.081960859 
  397000    1514.6399   -10810.634   -10340.951    7271.9979    0.0819653  0.081960889 
  398000    1495.9062    -10804.84   -10340.967    7319.6728  0.086124406  0.081988832 
  399000    1545.4344    -10820.17   -10340.938    7367.4023  0.084395152  0.082004874 
  400000    1512.3301   -10809.918   -10340.952    7416.9861  0.093029236  0.082077883 
  401000    1501.1872   -10806.442   -10340.932    7464.9964  0.082399592  0.082079999 
  402000    1511.8886   -10809.754   -10340.925    7514.2526  0.078590723  0.082057194 
  403000    1528.9964   -10815.069   -10340.935     7562.015  0.079585816  0.082041146 
  404000     1512.813   -10810.056    -10340.94    7612.4436  0.080353269  0.082030256 
  405000    1535.6646    -10817.12   -10340.918    7663.6934  0.076977663  0.081997868 
  406000    1519.1654   -10812.027   -10340.942    7709.3705  0.087130049  0.082030557 
  407000    1505.1921   -10807.702   -10340.949    7755.9208  0.075820405  0.081991252 
  408000    1517.7075    -10811.56   -10340.926    7805.0955   0.07716019  0.081960868 
  409000    1549.7796   -10821.517   -10340.938    7855.2982  0.083718867  0.081971856 
  410000     1532.015   -10815.999   -10340.929    7902.9491  0.087275157  0.082004795 
  411000    1495.5822   -10804.683    -10340.91    7948.8288  0.089985743   0.08205406 
  412000    1519.8652   -10812.229   -10340.927    7997.7512  0.073047555  0.081998806 
  413000    1524.3771   -10813.622    -10340.92    8048.2682  0.080014886  0.081986709 
  414000    1530.9351   -10815.661   -10340.926    8098.4552  0.080591427  0.081978252 
  415000    1500.9382   -10806.353   -10340.919    8149.9741  0.078568485  0.081957712 
  416000    1511.0888   -10809.491    -10340.91    8197.8784  0.082265113  0.081959552 
  417000    1480.1816     -10799.9   -10340.903    8246.9317  0.079541126  0.081945157 
  418000    1544.4429   -10819.846   -10340.922    8295.2253  0.078170406  0.081922821 
  419000    1538.4809   -10818.015   -10340.939    8344.9329  0.083121907  0.081929875 
  420000    1497.3016   -10805.241   -10340.935    8391.6375  0.087305593  0.081961312 
  421000    1485.9229   -10801.701   -10340.924    8442.2664  0.085399746  0.081981302 
  422000    1513.4556   -10810.215     -10340.9    8493.6214  0.078030774  0.081958467 
  423000    1509.0012   -10808.875   -10340.941    8543.8679  0.082269481  0.081960254 
  424000    1518.0762   -10811.678    -10340.93    8594.0318  0.081817969  0.081959441 
  425000    1520.1876   -10812.334   -10340.931    8645.6547   0.08689559  0.081987488 
  426000    1518.6621   -10811.861   -10340.932    8697.3429  0.080034129  0.081976452 
  427000    1549.7927   -10821.549   -10340.966    8746.8211  0.079502328  0.081962552 
  428000    1506.6356   -10808.144   -10340.943    8794.4487  0.088223244  0.081997528 
  429000    1532.7471   -10816.258    -10340.96    8845.3552  0.082587158  0.082000804 
  430000     1506.699   -10808.206   -10340.986    8895.7063  0.086207291  0.082024044 
  431000      1513.34   -10810.224   -10340.944    8945.0101   0.08773611  0.082055429 
  432000     1456.243   -10792.518   -10340.944    8994.4579  0.084019915  0.082066164 
  433000    1503.4844   -10807.133    -10340.91    9042.0449  0.081219839  0.082061564 
  434000    1499.1798    -10805.82   -10340.932    9092.3233  0.080831191  0.082054914 
  435000    1526.0258   -10814.152   -10340.939    9143.7147  0.080801419  0.082048175 
  436000    1512.4946   -10809.959   -10340.942    9195.5653   0.07130241  0.081990711 
  437000    1541.1098   -10818.838   -10340.947    9244.4463  0.078236379  0.081970741 
  438000     1503.217    -10807.06   -10340.919    9295.8038  0.077639301  0.081947823 
  439000    1492.6202   -10803.761   -10340.907    9344.7388  0.077727744  0.081925612 
  440000    1505.4004   -10807.779   -10340.962    9392.6508  0.076719752  0.081898356 
  441000    1549.0464   -10821.312    -10340.96    9442.3472  0.085435359  0.081916778 
  442000    1528.9353   -10815.064   -10340.949     9492.349  0.080857774  0.081911291 
  443000    1548.4187   -10821.084   -10340.927    9540.7209  0.085508174  0.081929832 
  444000    1490.2493   -10803.075   -10340.956    9586.2722  0.087604473  0.081958932 
  445000    1513.4375   -10810.237   -10340.928    9635.4079  0.078103435  0.081939262 
  446000    1486.0553    -10801.75   -10340.932    9681.5301    0.0829571  0.081944428 
  447000    1488.4404   -10802.509   -10340.951    9730.6273   0.07611264  0.081914975 
  448000    1547.0067   -10820.674   -10340.955    9781.5061  0.077129432  0.081890927 
  449000    1522.6155   -10813.095   -10340.939    9830.1074  0.081740552  0.081890175 
  450000     1511.512   -10809.648   -10340.936    9876.7257  0.082906173   0.08189523 
Loop time of 51566.3 on 1 procs for 200000 steps with 2400 atoms

Performance: 0.335 ns/day, 71.620 hours/ns, 3.879 timesteps/s
95.1% CPU use with 1 MPI tasks x 1 OpenMP threads

MPI task timing breakdown:
Section |  min time  |  avg time  |  max time  |%varavg| %total
---------------------------------------------------------------
Pair    | 51389      | 51389      | 51389      |   0.0 | 99.66
Neigh   | 149.26     | 149.26     | 149.26     |   0.0 |  0.29
Comm    | 13.203     | 13.203     | 13.203     |   0.0 |  0.03
Output  | 0.0055822  | 0.0055822  | 0.0055822  |   0.0 |  0.00
Modify  | 11.01      | 11.01      | 11.01      |   0.0 |  0.02
Other   |            | 3.996      |            |       |  0.01

Nlocal:        2400.00 ave        2400 max        2400 min
Histogram: 1 0 0 0 0 0 0 0 0 0
Nghost:        5001.00 ave        5001 max        5001 min
Histogram: 1 0 0 0 0 0 0 0 0 0
Neighs:         0.00000 ave           0 max           0 min
Histogram: 1 0 0 0 0 0 0 0 0 0
FullNghs:      253300.0 ave      253300 max      253300 min
Histogram: 1 0 0 0 0 0 0 0 0 0

Total # of neighbors = 253300
Ave neighs/atom = 105.54167
Neighbor list builds = 10576
Dangerous builds = 0
print           "Running average thermal conductivity: $(v_kappa:%.2f)"
Running average thermal conductivity: 9.09

# unfix NVT
# timestep .1
# fix NVT all nvt temp ${Tsim} ${Tsim} $(10.0*dt)
# run 100
write_data	Therm_${Tsim}_restartpoint.lammps
write_data	Therm_1500_restartpoint.lammps
System init for write_data ...

Total wall time: 33:24:14
