LAMMPS data file via write_data, version 29 Sep 2021, timestep = 450000

2400 atoms
3 atom types

0 22.110937764373098 xlo xhi
0 33.16640664655965 ylo yhi
0 44.221875528746196 zlo zhi

Masses

1 18.998403163
2 6.938
3 22.989769

Atoms # atomic

1207 1 2.942162945185176 3.478906606570503 4.480266923688898 2 1 0
1257 2 4.043148671463922 2.902741691941727 2.5412955783270617 0 -2 0
321 1 3.408584757686965 1.1376208407964135 2.2847955083485707 2 2 2
1231 1 2.2536605662345095 4.4285071388339 1.0057807623832258 -2 1 0
509 1 8.764851367030564 1.2178978812579768 3.517420051605515 -5 1 1
1089 2 6.978677075695122 1.2174188661634011 3.8417673170525504 1 2 0
141 1 10.792334163384485 33.09998607148298 0.23877231384559786 -2 -2 0
196 3 11.844522193004394 2.065510077147238 0.5140190785617377 3 0 0
230 1 10.07880937913431 4.309853327972742 4.706923703208438 1 0 -1
106 1 8.150098291461664 3.8072774339928266 1.8262703286302777 0 -1 -1
173 2 11.347257137829592 1.119849008583255 3.259431607763005 -5 1 1
2014 1 13.28586666981597 33.05448396923413 2.446534207681252 -2 1 1
1434 1 11.39811919604202 29.820531403046505 4.877088795823176 0 -1 1
1583 2 14.53600087469946 32.88160857139553 43.807014956463654 2 0 -1
1019 1 16.610334070133263 32.169021907266846 3.53893806063519 2 1 0
1672 2 16.501596869418986 2.3845584044382875 0.548588671721153 0 -1 0
2009 1 13.961297932572165 1.8168332361817892 0.13950566146499568 -2 1 0
2133 1 15.568305321115096 2.776464510646077 2.4056813749327235 0 1 1
603 1 17.628752321571167 1.110509197023986 0.41289868089608384 0 -1 0
983 2 16.866431631905925 0.13037303106441905 1.9054472634837094 -1 0 0
669 2 2.3217881409104724 1.863376287424294 3.670055643586988 -1 2 -1
1903 1 18.62460483337295 1.2333788014090106 2.8550333290216394 0 1 1
161 2 19.717628907927658 2.181726592707295 1.4533629352326518 -2 0 0
1534 1 21.616050092973893 1.7952183339607308 0.39311381748572694 -1 0 2
2150 1 0.18319596372859231 3.9018956682466137 4.4781862418067115 0 -1 1
1493 3 22.108213755798467 4.136881853174225 1.9382066738410246 1 -2 0
1347 1 21.360434319913985 7.134824623155773 1.3483640260856402 -1 1 0
250 1 2.2074481221729183 7.11734327545407 44.03415235216767 -2 1 -2
1511 1 5.894725550914175 2.19101339325699 2.851160168897491 -2 -1 -1
1802 1 3.627596201222705 7.113781717835288 4.769271962535137 1 0 1
1788 2 5.307780273112529 7.277335573980053 44.08772349168611 -1 3 1
1700 3 6.674343062835986 5.218731707807598 1.7443946869180038 -1 -2 1
381 2 4.2939623249582795 6.598654130688823 3.3133692364711806 2 -1 0
317 1 6.04604466010336 6.156184653539139 42.61692628244258 -1 0 -1
1051 2 3.867609252002065 5.187301979199034 0.08440476052590824 -1 1 -1
1322 1 5.4302089218399106 5.121572903809861 3.517390682362713 0 -1 0
1864 2 10.799276021853569 7.102854062363027 1.7646720608649624 0 -1 1
247 1 10.85967928285893 8.008962766147029 3.463662638979081 -1 -1 0
154 2 9.681374518735693 4.408199630619622 0.8145673000380156 0 -1 -1
1708 1 11.246714717770745 5.5234645628103305 1.904510784361349 1 0 0
1683 2 12.601135930080149 6.597252804700494 0.04113648240745786 -2 0 0
1696 3 14.042128673481061 8.048690142865112 3.298430576513829 -3 2 1
1701 1 10.621161708304102 2.0449158998741575 2.246327563472027 3 2 0
1649 1 16.50488483365576 4.1235484471095925 43.99636921229031 3 0 -2
1453 2 17.337179817372583 5.742516856135282 42.957223289223826 3 0 0
520 1 16.686421047843663 7.850752666766024 43.73492463743509 1 -1 0
1686 2 14.000552773525088 3.901607999288689 1.5044660985407776 -1 0 3
1235 1 14.232029086924925 5.374359095286926 2.5576254811253785 0 0 0
1551 2 15.945788303483376 5.2945505081431445 3.3454845115810983 -2 0 2
897 3 14.510728593219888 8.708074268772721 43.61831655215739 -1 0 0
1736 1 19.979010864579653 3.902135689322427 1.7016746654490744 0 0 1
2277 2 21.717705387520443 4.4254180006446235 6.583719525458164 -2 0 2
854 2 19.16437645498636 5.24547806427209 0.9977328403890033 0 0 0
392 3 19.55420426147486 4.739114624304003 4.138856960235873 2 -1 0
1331 1 18.579287010081284 6.20542208480649 2.4647450830855546 0 1 1
1787 2 0.8462140656845853 7.677874159842816 1.0283569780857233 -3 1 1
303 1 1.6626793706008096 8.229628215047033 2.749047140712667 1 0 -1
575 2 2.2343864255674193 9.56928553232224 43.30095231808276 4 1 -1
136 1 3.1641761216859163 9.709681021184734 0.7522457033907376 -1 -2 1
252 2 4.896347475698383 11.563782507522308 2.924272913404856 -1 -1 1
2242 1 4.727567610361745 6.940355800189409 1.4339161096731325 3 1 0
80 2 3.2740995538973574 7.974681939754763 0.8460690094571213 3 0 0
243 1 10.399115276771711 9.00297011772357 0.933025918619918 0 -1 -2
924 1 12.944787783299558 8.061946791823512 0.8568452413628882 4 0 0
797 3 12.070638791722777 10.544054481024844 3.5744780193581724 1 -1 1
1230 1 16.25988290181118 8.108081336403433 2.645358505554238 1 -1 0
1870 2 17.53211871209454 7.623374108243444 1.487574083606497 0 -1 0
988 2 18.434680363958208 9.43538630145813 43.88602094472167 0 1 1
837 1 13.974385894328154 10.178028637965358 2.907355167561599 0 2 1
239 1 17.222927134844856 10.930489964120216 43.51761104989375 -2 1 -1
602 1 18.649480131393435 8.71089280921969 1.2470858956501039 0 -1 -1
2254 2 21.575664564833275 11.092512271175753 4.274351466281228 3 0 0
68 2 19.555121430612427 9.91043021221702 2.870095961270944 0 0 -1
1652 2 1.0335135314927169 13.404476841466954 0.23063680895481778 1 1 0
2321 1 0.15214776893869128 13.112859583421216 1.5862459842844818 -1 -1 1
1531 1 3.171555886930516 12.347140023328926 1.9934075875516588 0 0 0
98 3 1.475358445449994 11.243350387528828 1.9884592403334476 1 -2 1
1423 1 2.4633753731921817 14.50847059321992 0.6249416128788292 -1 2 1
2271 2 8.496589194673145 14.540122901165926 43.763755769956155 -1 0 -2
320 1 5.4056600103459695 11.618877513417393 1.0829205337133891 -1 0 0
1698 3 10.464470480077205 13.043089053999019 3.81023363525706 -3 -2 2
1439 1 10.20819892846265 13.775584911718274 43.98919598325271 -6 -1 0
605 1 10.711274526840407 15.263891688334095 2.1173004090073184 0 0 0
2322 1 11.7144312350034 12.407527428980096 2.1385833491192274 0 0 2
1001 1 13.122463777780832 13.847056666345596 0.5040000747362254 2 0 0
1875 2 12.0183472543572 12.010042565998825 0.08153251619892941 -2 0 0
400 3 14.396541785491344 12.920352474114448 2.314834384855099 2 1 -1
1585 2 11.39281694651364 13.80401272896168 1.1000375651982672 0 1 1
676 2 17.739015062205148 12.214507019241129 0.7201282054824238 0 -2 1
434 1 18.315332612712954 15.477872249701093 2.7056458776945935 -2 0 0
898 3 16.515574464863658 9.857123324830354 1.537175374140164 -2 -1 1
1817 1 19.16854291705902 12.395951119849697 2.6072028239150082 -1 3 1
1536 1 1.7460733846106637 11.782357362409867 43.640115726311436 4 -1 0
1754 2 20.568528062181628 12.151132137609741 1.5501485929871426 3 0 1
5 1 21.49407831054147 10.322347817881719 2.6219055187418094 1 0 0
1236 1 19.081740305827807 13.882508945408361 0.319287051818016 0 -1 1
1878 2 3.4226284180166373 13.902145237978617 2.5117484369968244 0 -1 1
522 1 4.11241209775375 17.62671994917004 2.2202030913919275 -1 -1 0
465 2 1.5328083589741155 19.96239647209218 2.0986337812782496 3 1 1
702 1 1.6535851217624913 14.884339314730502 3.3007425970797746 1 -1 1
135 1 20.40714513614134 17.235567817558 0.5909925216444415 1 -3 0
1488 2 1.4752146563084738 15.601499900049408 1.5892491933889237 -1 1 0
1185 2 5.125474626052818 16.533333955503323 1.5343964912551862 0 1 0
2221 1 4.045621143447338 22.125652899197025 3.465222498773198 1 1 2
1030 1 5.176523259408728 14.773769809513308 2.158477632141904 2 1 -2
1485 2 7.546371128382264 16.35563429469528 4.364223025289319 -1 0 0
497 3 7.990026245602242 18.70476386631982 1.5951149469787034 -2 0 0
1106 1 8.187152469340965 16.38957613289753 0.39946361930122287 -2 0 0
48 1 15.1350614147746 15.385071662155607 2.6182052563681295 -2 0 1
580 2 12.774871260454487 15.687832386403924 1.449649002646497 -2 -2 0
1308 1 12.60035481445201 17.340854147197998 2.6178525611283354 -2 -1 1
1798 3 12.56326845033699 14.999702488535812 42.19988542712218 2 1 0
1032 1 13.944207994834196 18.696394915157935 0.5132714411101479 1 -1 0
1283 2 14.047236089985175 18.251312322255654 2.067821473867053 0 -1 0
507 1 15.768750098695357 18.782567763266165 2.3493584880002816 -1 1 1
991 3 16.3284220817201 14.940580252678693 0.18936093963937783 0 2 0
1202 1 18.785914765686883 17.908174185943277 2.559490404288755 -1 -1 2
2255 2 20.70438920429778 17.458761399446338 2.4527384548980984 2 0 0
1254 2 18.91252369521738 16.17899251708044 1.3097891122278418 -1 0 1
1301 1 21.683067676239997 16.434828125958905 3.2858478715274333 1 1 1
1180 2 16.742086446620256 20.250174983888268 2.504414360294698 0 1 0
1810 1 17.38912095613237 17.232398737130527 0.36929042767473985 0 -1 2
1883 2 0.4996559296177863 20.713009563629093 43.82893542819461 1 0 0
1108 1 21.518492498701548 23.414174697010807 2.3470866709535825 1 0 0
211 1 1.7442231477325174 21.70242941433304 2.0336945594109057 1 1 0
336 1 22.000744510491753 19.04200619779364 1.9699631049101303 2 -2 1
2173 2 0.7428322669601736 22.82549295562972 1.338162455280421 -2 2 2
1691 3 3.8700052391297275 21.75020076399718 1.3102992528804478 4 0 1
2187 2 5.892243265883911 21.651011224932326 3.9088995913965086 -3 2 1
1203 1 6.973796346167728 23.046818559557373 3.160760984199226 0 0 2
1286 2 2.5644581144053467 21.33355542566263 4.224259202130774 -2 -1 1
1066 2 6.388903581054322 23.921130851863516 1.6498496879417166 -1 1 1
334 1 7.090278008904962 19.912063380077896 3.3544041512043656 1 0 0
1256 2 7.404660743079107 25.228060393053756 7.348027644433082 0 0 0
1418 1 9.34356666332429 21.07602287918311 1.6546378626893037 1 1 1
1743 1 11.061882119626583 19.020825970353304 1.3425979582863434 1 -1 0
2007 1 9.602500107552268 23.090377926546296 3.6658138479056954 0 0 2
2395 3 11.002823547785887 18.300873853707603 3.5511376875784864 0 1 0
2162 2 8.606836506752684 21.169743179096923 44.00192000147175 3 1 0
687 2 11.42365790049063 20.62291506388532 1.5872045610883947 -1 -1 -1
1157 2 12.54377245665152 19.009162671077267 43.5404597757335 1 -3 1
483 2 11.285486681250203 23.116665396576494 3.7745097449241283 0 0 -1
333 1 12.572711330039924 21.82575186300995 2.3782680140165087 1 0 0
1637 1 11.997943108216207 20.091522981056904 4.851233535581478 1 2 0
1296 3 14.36695362676571 21.22032704284217 0.8851957595694876 -1 -1 0
203 1 16.136096963135163 21.73393760220724 2.083683942509041 -2 1 -1
649 1 21.391128053654363 22.170150571407216 0.07725934818057277 -1 0 -1
625 1 18.32027537127873 20.19462996747636 1.3077077438196518 1 0 0
1393 3 17.36731432943866 21.50515345011319 42.03497413108689 2 -1 -1
896 3 19.971010648352973 21.650603427092257 1.4412817037822425 3 -1 -2
1828 1 1.3005637158292733 23.895959745919736 44.19871746049402 -1 -1 -1
856 2 5.567350526917229 27.395245443106433 2.725598154687111 3 0 0
1890 2 8.29190737268907 23.443942333289908 4.703999968563583 -1 -1 1
33 1 5.657403264862447 25.737736684073777 2.022886556815014 -1 0 1
302 1 10.795411376855277 23.979119748996823 0.08194511434326518 4 -2 -1
1041 1 13.7082466659583 24.254018367814872 1.3334536081510413 -2 1 0
199 3 12.800182565986521 26.199439905821617 1.4784098913924173 -1 0 0
1681 2 16.970810040677268 22.613092541196348 0.58233676280584 2 0 1
1616 1 16.886813293897074 24.583737476205638 0.8284690095578605 0 0 -1
2175 2 14.389778092725498 27.96813603099591 44.18468028918606 3 1 1
440 1 18.137357408658097 27.187057820390656 2.528940785023839 1 -1 -1
1596 3 19.245152793205158 24.768819006315162 0.5679816188824672 0 -1 0
2039 1 18.53417856319872 22.883949508802264 43.820773119227795 -1 1 0
1012 1 20.51522883645196 26.442319912439302 1.5742834607238754 1 1 2
1891 3 3.2060955225412613 25.182035011483237 0.902291314115384 -1 0 1
2006 1 5.357069860054634 27.888483137786977 4.851855449668792 0 0 2
2256 2 3.55994169653941 29.98133917953273 2.1118490308365256 -1 0 1
2194 3 22.0373429467825 26.06979153577986 44.18441882403129 1 1 -1
2316 1 2.118763228082575 28.45583129495953 2.910796201030162 1 1 -1
730 1 7.253596892415576 27.592001667604634 2.8226597500823343 0 2 0
1954 2 6.451729243634447 29.109020244051276 3.8957580584111824 1 -1 1
2129 1 5.150472219369506 29.678610800486197 2.7382046123186656 3 -1 2
1569 2 6.149327205797799 29.284515548003256 0.5691797562351656 -1 0 0
506 1 6.092385660712153 30.482480431368252 5.05993270959739 2 0 -1
715 1 9.521728575113213 28.515642709987937 2.9599151889560824 1 -1 1
1394 3 8.727953653001338 26.29324886208331 3.9680964326703223 0 -1 -1
1248 1 7.664498994032138 26.01833672815581 0.3087067889660664 -2 -1 0
600 3 6.833675989957801 26.69180372308363 42.5809570380929 -2 0 -1
289 2 8.126366009309626 27.82041895098875 1.3549287264693335 0 -2 0
398 3 16.176888603199494 26.17216731951115 2.052432717988577 0 -1 3
1892 3 15.109834230196844 30.55403599796115 0.1845813288690105 -1 1 2
714 1 10.537134225932327 27.16167107093306 43.866424511198794 2 -1 -1
1420 1 12.734236048531375 27.34086888648381 3.78278387673906 0 -2 1
316 1 15.23085259157996 28.26464726865803 1.3330408158508142 -1 1 0
1298 3 17.041469197333313 27.57786542184284 43.81506043356996 -1 -1 2
1182 2 19.383842520992282 29.52028132243523 4.155200274910781 -2 -1 1
2326 1 19.18593476445164 28.223370312108877 43.92649180901702 2 1 0
2398 3 21.629558473619237 33.07668089926438 1.5523118737049295 -2 -1 2
2003 1 21.575889764307675 27.446182675471658 42.49631878764949 -3 -1 2
851 2 5.672559393936212 0.7698945584169025 1.7094330242461888 -1 1 0
442 1 2.888368979915214 31.460565684940132 3.0331737900225413 2 2 -1
2358 2 1.9146459949036618 31.81249151941971 4.560173933952695 0 -3 2
197 3 3.0436403691148306 29.082577702554648 4.797043990414113 -2 0 0
1343 1 5.793019394784151 32.969729033229775 3.25613075481407 2 -1 0
1200 3 6.477460297667265 32.84341306914191 42.27905056418602 0 -3 -2
1792 3 8.102881988556993 32.455916468586615 0.5005873872994087 0 1 0
1311 1 8.627686610395985 31.630792297811656 3.5235349502324373 -1 -1 0
866 2 12.199025111167565 31.726025858950496 1.378156808854502 -1 2 1
2076 2 9.746530819505217 30.312119948791192 3.1748055557538097 0 -2 0
206 1 11.289005109795232 30.268026876996245 1.7679026014586345 0 0 -1
701 1 7.906802925980734 29.64824006136444 0.49438779050616544 1 -1 2
1359 2 10.764512652653348 28.7759259293439 0.8296972374117519 2 -2 2
1416 1 12.440672501706302 28.34082177681408 0.7924971899805606 -1 0 1
1266 2 14.350979046420052 26.206747343962057 4.56476528962977 -2 1 1
166 2 14.69137848691629 31.945184555165532 3.068967645305443 -1 0 0
1396 3 18.276615207651968 31.460246210067723 1.5718281941604564 -3 -1 -2
1130 1 17.16132273392995 30.246787875160823 43.78367081317656 -1 -1 -1
1833 1 17.98182571442824 29.99936118199159 3.0433785015747183 -2 0 1
1145 1 20.080625916902385 31.745198298036588 0.34815296996917583 2 2 0
852 2 3.9974244496131606 33.08837211434584 3.3679869528009627 3 -2 2
1233 1 2.8018095048061378 33.133197620983005 8.344337812882904 2 0 -1
1855 2 3.241541133544969 2.2402263682978347 9.244303174666937 2 -1 1
2330 1 5.310810749508813 31.463793286694145 8.627761927823267 0 0 0
1292 3 4.755468904579569 0.7763503159958692 5.916143148735806 -1 1 2
2333 1 3.29552323920691 30.64070946535106 6.286655505782723 2 2 3
1320 1 6.071069143734635 2.452192678211791 5.5820078475427595 2 0 -1
36 1 10.02675610140506 3.816989419069122 7.941297671476783 3 1 0
93 3 7.166426656606434 1.794179962409799 7.191544392115072 -2 -1 -3
2225 1 11.138196107553966 32.97698167505165 5.105600708690197 -2 -1 1
2281 2 10.254411412548157 4.723467699498993 6.613705372208776 4 1 -1
1564 2 10.845635747788855 2.1587343529826097 8.24924286313674 -1 -1 0
1400 3 12.842004123468227 1.1165647495187192 5.49016464843718 3 -1 1
1313 1 12.878971196067514 2.715884097604237 3.603918856628035 -4 -1 0
1831 1 15.323428751656644 1.5671923650477517 4.636242319780015 2 -2 1
2140 1 17.200017515013293 3.030472283778468 6.200971747296689 1 -1 1
1973 2 14.02471107325002 1.4366497542676793 2.8016247279760083 -2 1 1
254 2 17.598841411085335 1.2340007431951077 4.453141106110367 -1 0 0
1790 2 18.392192520490422 4.1701216795384415 6.636032822933211 -1 -2 0
1092 3 21.98186051383985 1.6017614198698973 4.993404374333602 -1 1 0
2131 1 18.31294804980336 0.10064448567015202 5.761492153848231 -1 1 1
1740 1 3.7011265563699682 4.490645549788595 7.246688525548533 2 -1 1
2266 2 2.795203206141721 2.986022687916911 6.148500655688013 -3 0 1
553 2 5.814593300841162 3.5863250135473868 4.27106320626151 3 1 -1
2183 2 5.336292835469994 4.850511780857392 7.474187811135829 2 0 1
2336 1 6.998757483112365 3.922055725629424 8.500536560329815 1 -1 -1
2383 2 4.336177756952595 5.823628807519378 5.849618132079779 1 2 1
2096 3 8.888790980397218 6.261622628551533 4.235562461792536 -4 1 1
631 1 11.406198717471792 6.045270779599535 6.101958967657179 -3 0 -1
967 2 10.991027544242636 6.229650191401889 8.07871428073762 1 -3 -1
1738 1 12.693370692362297 4.2647643601716245 7.633245912380446 -2 2 0
1000 3 11.38015293667251 4.0932709195054 3.0101575252247352 -2 0 0
1656 2 15.846908430814242 3.646909434360018 5.542286882855637 -3 1 0
2308 1 14.853327716203617 4.713101207341149 6.072799137463067 -1 0 0
1932 1 17.059711971418782 5.478973704778419 4.836366745456916 1 0 1
117 1 16.32428924000764 8.099532332151542 6.433782542125161 -2 0 0
681 2 16.02396040005938 3.6158225114154265 8.078456069918758 2 1 -2
1979 2 16.128818750020674 6.380527590651824 6.417401907435972 -1 1 1
1033 1 21.324500020332174 6.660592185531002 5.988380351512507 -2 2 0
2374 2 20.71812986775178 6.8880231938457435 7.63530592234523 0 2 1
527 1 19.82940248150812 3.698700893895373 6.149310742780705 2 1 -1
1481 2 19.03215005909276 10.137621089941018 5.664437292882944 4 -1 0
201 1 1.2433304198258743 3.216593803807892 7.42913258054116 3 -2 1
292 3 1.06242066239589 7.621232978200843 4.821475836553053 0 2 -1
1111 1 0.16668611526581822 9.360667898728456 5.340441761164937 -1 0 1
1969 2 4.118153747603682 6.880262020733006 9.634600528544391 3 -2 0
431 1 2.9327176568443347 10.556865877106004 4.332771696698753 1 0 0
125 1 5.542868810700804 6.995990630206006 6.838048799165785 -2 2 2
937 1 5.117821143542307 9.634592527291305 3.119507682755222 1 0 0
1190 2 3.3037733793104755 9.447854651574554 2.8942692348887324 0 -3 0
610 1 5.681330451865175 9.895513030732992 6.282764107772312 0 1 1
2199 3 7.269030424338142 6.416878420472502 7.674642606155497 1 -1 1
29 1 9.168304231476498 6.535835541205023 6.359461312525392 -1 -2 -1
1377 2 11.112751032608257 7.67561615857714 5.596777557038153 1 -1 0
379 2 9.866844873850104 9.551664261403515 4.530102925453408 2 3 1
241 1 14.435266376661636 6.869430238490618 8.471640036477671 -5 0 1
1132 1 11.001840745937521 9.437013996508231 5.867165594458856 0 0 1
534 1 13.045394589276198 7.335630609262556 5.193901235747452 0 1 0
1684 2 13.034266763887706 7.141797754443829 6.773060987730174 0 2 1
54 2 15.370538442713842 10.340255944442536 7.424679554917598 -3 -1 0
1022 1 14.005707185604152 10.324450147792009 6.206679260421665 2 1 1
1897 3 17.563909801177655 7.442047577156693 4.535840950338552 -1 0 1
548 1 17.397332978921455 10.703840784837451 3.4982363752313326 1 1 -1
510 1 13.268733026302117 11.452997699098033 8.380045796811592 3 2 0
1239 1 19.541518369400507 8.796165012838596 4.39242502575057 -3 2 0
2157 2 20.96832269839029 12.955688835986285 5.864750271942374 1 1 1
43 1 19.893077610683275 9.143025954967127 7.113355149211422 1 -2 0
2084 2 20.689348603553984 8.703580862040488 5.713433533048274 0 -1 1
480 2 1.675428490258759 10.543033623070963 5.9330058225463 0 -1 0
1329 1 20.222289611606495 12.571873805786305 7.786766343349408 2 -2 0
1911 1 0.6242433946746259 12.423371955512948 4.111267711153512 -1 -1 0
1651 2 4.536819394037979 12.42275665492016 9.422852319531717 0 0 0
1519 1 6.422211675434152 12.379885341843881 3.4888761312534298 1 0 1
576 2 2.4530269675241727 12.238676398273768 4.602265504788664 -2 0 0
1742 1 8.36266329636075 14.652350658216143 3.8828507663242156 3 1 -1
444 1 2.6178661045478533 9.466811867259521 7.2439785119179545 1 1 2
1104 1 3.2851742821942747 13.612511293437368 4.864562125126207 3 0 -1
1993 3 5.133482208071044 12.348540640692331 6.209366977590641 1 0 0
487 2 6.619660198552144 9.725234145254188 4.697428210433831 -2 0 0
1309 1 6.484215453770634 11.453567096779178 8.66918688798222 4 -1 2
2294 3 12.539643004461904 12.883462416965257 6.290489392163473 0 0 2
1335 1 8.208255019528364 8.854354001917653 4.206199922086157 -2 -1 0
1088 2 8.654074272297269 15.845675025593264 2.422901421266228 -3 1 0
1970 2 11.96459609074236 16.214035209413744 6.894225998828427 1 0 0
1725 1 13.722410105521625 12.460575115775447 4.511282646432892 1 2 2
1994 3 15.360734639941596 10.959111861768339 4.1809207117782385 -4 1 0
2163 2 16.475861128387756 15.187060233602784 3.6730507426321513 0 -1 1
1533 1 10.823596624979633 14.436150352799284 5.683827795499727 1 -1 1
395 3 15.17429655191786 13.88963620333748 6.320982718056593 -2 0 0
1739 1 16.913508546906236 13.647893465914018 4.768577699398996 0 -1 -1
1532 1 20.176083076138426 11.607247212907936 5.225170804899784 0 -1 0
378 2 18.938803135748717 13.966260979756822 2.1650281484886276 5 0 1
1984 2 0.5150057019275552 14.840456954118695 11.14805953026617 3 -3 1
1968 2 22.042265347522402 14.323694524295895 3.1995705438985937 0 -1 0
286 2 0.8130837715747605 12.914822233220658 8.874265374453065 -3 0 0
1597 3 1.5361967835434844 16.87457494566208 4.22414992405988 1 -2 1
850 1 1.1377548469689238 12.059956221937464 6.524316488923923 0 -1 -1
1318 1 1.2286363170553862 15.085169979112422 8.606161451947655 2 -1 0
916 1 9.159966962102986 17.3876249336152 3.734733441250959 3 0 2
2234 1 6.425446490935676 16.980501902740805 3.27989087835739 2 1 1
267 2 6.8710253831073285 14.015769225386425 2.90548658089374 3 -2 -1
926 1 6.440721924724733 14.843331012450879 5.743512642049716 2 0 0
2200 3 4.703909263841231 18.17034739854034 4.3281436036127 0 -1 0
878 2 4.835347846729423 15.232073144537132 5.8704063835316065 1 -1 0
2311 1 8.076830332682878 17.446373807354938 6.138027951746397 1 1 3
264 2 9.76924909307337 17.755438209642772 5.219316268321208 2 1 0
799 3 12.61939005518502 15.461872927922288 4.388777865756713 1 -1 0
2147 1 13.437121020535205 15.145514734433608 6.182488269964686 1 2 1
2089 2 16.00544824976483 18.765793825346712 4.820611472568654 -3 -1 1
1628 1 16.633573420136226 16.43399375286118 4.955485813087898 0 -1 0
277 2 17.137917605408017 17.43274320869197 2.129912951759356 1 1 0
1506 1 12.599334214017174 16.61280159577971 8.43220580898715 1 1 0
103 1 16.272232771128277 20.669356616137588 9.171946996634986 -1 -2 -1
331 1 21.906536025860312 14.395414644944841 5.829183004490587 1 1 -2
1889 2 17.86056742884076 12.256327104370877 4.423302938993948 0 0 -1
2197 3 20.536669887949277 16.551319804549575 5.480168424989347 0 -1 1
1078 2 18.13760671643152 17.88203427594537 4.790370752903828 1 -2 -1
2233 1 19.486514362864664 15.529528258473167 7.238271975978555 -2 2 1
2291 3 5.128516056139621 23.152850384699857 6.962764419656128 3 0 -1
711 1 3.540293089615651 18.893719602320765 7.879017037555806 1 0 0
1845 1 1.1827412959698322 18.0746356886258 6.552508467873275 -1 -1 1
832 1 2.3956347830008333 19.368830549842464 4.000878899493979 -3 -1 0
919 1 5.610547164184881 18.82193218763981 5.84745077571711 0 0 0
1354 2 1.8625487028534151 22.487499595382562 6.701279868016222 -1 -2 0
1604 1 9.392598709241089 20.05489376509068 5.76154429579314 2 0 1
2067 2 7.31211253056384 19.471451764653047 5.137706683224451 2 -1 2
1177 2 10.957318902646103 21.277391459232685 6.082472181824714 0 -2 2
545 1 8.963258856252818 23.45085444422038 6.457712584992457 0 0 0
2115 1 10.525050655649814 20.79185356742573 7.807796710332308 0 0 0
1558 2 13.589421444655393 20.757195904796063 4.844015583156056 -2 -1 0
1215 1 15.004624015116065 19.8558404234291 5.625619138479724 0 1 -1
1455 2 12.626535357658309 18.560965904228375 6.709192529536189 -1 -3 -1
215 1 14.307196400382663 22.33074249903948 4.221577601247782 -3 1 -1
1899 3 6.144476313126199 17.715572684420835 7.860060525441642 -3 -2 -1
228 1 17.511815223695525 19.80297868752217 4.314196265397047 -4 -2 -1
1959 2 14.200372662466693 23.716144581156517 3.2406232649812035 1 1 0
2070 2 18.980380313657573 19.500517267205957 3.150575868491392 0 1 0
1827 1 19.791870262701778 18.473515934023702 4.825699944251564 1 -1 0
1744 1 20.181691324479658 20.854128034511316 4.314585951423008 -1 -1 0
2099 3 21.581630525526073 19.73395538002052 5.42795830541668 -3 -1 1
586 2 0.37947346126380177 24.241378052458536 4.450473446741661 -1 1 -1
1338 1 2.501143437524385 25.016460904211147 3.0065641490554103 1 -2 0
242 1 1.2674064729283316 24.07800517576409 6.119265538599507 0 1 -1
499 3 0.39292158171189034 26.175122944715376 6.369395535087264 -1 -1 0
750 1 6.516144786782681 21.93778435966226 5.791624677285847 -1 0 0
1284 2 5.986689236598187 22.61639717646706 9.550124212320062 1 -1 -1
641 1 4.208632726092571 24.90817118863451 5.010605337113202 0 0 1
1562 2 5.55821100544345 26.092073779182726 4.833629499865033 1 1 2
130 1 3.1341596650450727 22.121755208485727 8.488931443180636 2 0 0
1 1 6.762062986224038 24.72875759449122 5.4333314451857735 1 -2 2
1857 2 8.199903470404259 21.648119819790203 2.8141223839288316 5 -2 1
2396 3 9.164295271792891 23.973344113605815 1.6850068336325559 0 -1 0
1411 1 10.804530816197522 25.280238260380713 2.4449359833074515 1 -1 0
1137 1 12.979380230316833 24.480328036367855 4.20729393453529 -2 0 0
1464 2 13.74617746123563 23.58731038242207 5.639755001815663 0 1 1
957 2 16.349950206412085 22.46288086285685 3.6893111107602725 1 -1 0
1039 1 15.582268186627788 24.929178909973935 4.21901635369314 -5 0 1
1819 1 18.891282410147387 22.895172391799044 3.187377768744985 -1 -1 0
1156 2 17.419202075775818 26.919647904578625 4.54722851457948 -1 0 0
1895 3 20.305516709201477 25.209674707460636 3.280476752919097 -1 1 1
1479 2 1.8832477347374006 26.78666457878347 3.553647946890466 -1 0 2
403 1 0.03188089339797146 26.112944263822943 4.268831007421322 1 0 0
1281 2 18.301760964877598 21.026571538815276 5.154288945098575 3 0 0
566 2 3.8745779780715295 23.892376364511843 3.4569365645447823 0 -2 -1
35 1 0.5024753211345588 30.894382895626972 4.075015783997975 -1 -1 0
1902 1 2.6151225826954274 27.092150992003297 5.480531457991355 2 -2 2
329 1 2.6850016046567773 25.81817757114424 8.963902985582 2 2 -1
200 3 3.1594030768747006 27.599687922195407 8.19658776792972 3 -2 0
1472 2 0.5664028156544191 29.71307689405566 2.6139879196166027 3 -1 0
158 2 2.546348127772651 25.360711604665564 5.460565444948955 0 -1 0
922 1 6.668645746542292 26.945275754934492 7.320374252934389 1 -1 0
192 3 6.386749114906322 26.413872053354496 9.3735030783737 -1 -1 0
26 1 10.447355973348982 25.752683047308494 5.574335926824057 -3 -1 0
1054 2 11.775682135500675 25.737391015877257 4.0969584352420165 2 0 0
2202 1 15.921171533665962 27.83018631801495 4.006819546400993 0 0 1
604 1 14.457701068404704 28.529784619343456 6.28046905404819 -3 -1 0
1483 2 11.392623875460838 27.49930321362097 6.766762044274281 2 0 -1
1443 1 18.69049263817717 28.22193037404005 5.209758947266387 -1 -1 1
1690 2 12.73526126521502 29.5823791719624 6.007875427992179 -2 -1 0
1751 2 16.691565171162672 28.06936515592389 6.337848016616114 -2 0 1
648 1 17.666336587509893 28.820161863224694 7.767107462837986 -1 1 0
1426 1 18.288849994481513 25.269867907325796 4.87789119895086 0 0 1
1289 2 16.91081648250289 28.57026690581101 2.6924657203208393 0 0 0
1574 2 19.683108982341334 27.89995834034207 1.5384142610288425 -1 2 1
1525 1 20.652723249127824 29.34806106317303 2.3679519729944754 0 -1 2
2320 1 0.6209072824458112 0.35922832549601347 3.4279639364350643 1 0 0
1663 2 21.841164239050194 30.35248122393611 5.652931556440008 -1 -2 1
542 1 0.5558490406553126 31.66961703436525 6.678568461612533 1 1 -2
1449 1 7.463207046757651 33.16503031067846 6.071841074504562 1 -1 1
179 2 6.025641205863098 28.783728732980723 6.217393936180439 1 1 0
14 1 4.732893091490013 28.842276687653726 7.579378041122464 3 0 -1
257 2 4.214478487371946 30.48191415146007 7.833584751039646 2 -1 1
990 2 5.401470572804633 31.163711759392005 3.62370262288656 0 -1 0
1034 1 7.613875438569846 29.40076421845868 7.234883049091126 0 0 0
1570 2 7.465270159566178 31.698434825721353 5.209029999260602 2 -3 1
1205 1 9.078462267693155 31.361693669463815 7.199249889630396 0 -3 1
500 3 9.191564339224705 29.77642395274561 5.748500797513765 0 -1 0
585 2 12.602221736611822 28.971679409765017 2.6477635389470904 1 2 -1
1158 2 9.010760205394558 33.01623549153355 4.974407183808621 3 3 1
140 1 10.344406881862598 28.28472417115599 7.90670342601815 1 -1 -1
1018 1 13.745775521058828 32.27430136601724 5.343196680571028 0 1 1
2185 2 15.258732128082919 29.055735220650536 4.8926824460561695 -1 0 1
1762 2 16.03900049312106 29.976933915041002 7.48982699133453 -3 -2 1
2276 2 15.629057639363285 0.11265991988288603 5.435845039001384 -3 0 1
1304 1 16.181209399558295 30.197342429387962 5.742673410390105 -1 0 1
1346 1 13.778294205598128 30.284110179676855 3.306778446078452 -1 -1 0
1825 1 19.301892536723653 30.820963986911984 5.509849787058617 -1 -2 1
955 2 19.68332415214532 28.87726061685323 6.534416409936084 0 -1 -1
829 1 2.897789013106374 0.5350725615489479 5.076393245064274 -1 0 1
1971 2 17.716621052543655 31.109490004501602 4.751286783315802 -2 -1 0
147 1 21.37554639063046 28.718717593653203 6.719910643392386 1 -1 0
1474 2 4.243505612763093 32.76122038954714 9.157063889540227 0 0 0
981 2 0.500335105674734 1.2176398610083157 11.831203435151625 1 0 0
284 2 4.748410367027608 5.460400798970461 11.245748016092865 1 0 0
363 2 6.179096755748697 2.4807223638432494 10.132294168156028 2 1 1
794 3 7.817559315546665 32.33311165820136 8.4501203938491 -1 -2 0
219 1 4.331363549724408 5.226798927990896 9.524268939387056 0 1 0
2361 2 9.244377639528963 1.1472907908407004 10.028863336683367 0 2 1
240 1 7.68180612525293 31.63934597579316 10.623695816793273 0 -2 0
845 1 9.877966640089033 0.679315786073526 8.595594849071682 -2 1 -1
1552 2 9.330138515126725 30.765387370456033 11.188278426654453 0 -3 0
622 1 12.325489617715846 1.0250046730523286 7.641246804121691 1 0 -1
1429 1 13.140983736994045 31.22511748718987 11.108706397118857 2 -2 1