FLiNa to FNa ratio: 1

100 atoms 
0  bonds
0  angles0  dihedrals
0  impropers

3 atom type
0  bond types
0  angle types
0  dihedral types
0  improper types

0.0 11.301694839547585 xlo xhi
0.0 11.301694839547585 ylo yhi
0.0 11.301694839547585 zlo zhi

Masses

1 18.998
2 6.941
2 22.99

Atoms

1 1 37.401 -243.375 103.966
2 1 -108.968 124.606 167.13 
3 1 -25.111 107.724 -29.01 
4 1 8.306 163.011 116.432
5 1 -113.215 237.583 -24.748
6 1 -12.218 283.771 78.396
7 1 -199.578 257.356 -84.229
8 1 -12.024 176.311 60.969
9 1 87.443 -42.054 8.805
10 1 127.53 59.616 -39.314
11 1 67.047 -54.963 54.729
12 1 157.736 333.023 40.042
13 1 -94.484 69.289 -152.685
14 1 -10.895 6.641 114.426
15 1 83.086 4.381 -48.086
16 1 198.744 73.579 87.28 
17 1 5.813 215.508 79.739
18 1 189.172 -56.409 -11.617
19 1 -61.679 -153.424 -23.823
20 1 106.118 -17.319 4.885
21 1 22.182 32.949 84.928
22 1 302.638 -87.299 -139.726
23 1 168.683 159.327 294.804
24 1 -15.782 284.883 20.338
25 1 310.645 52.681 16.575
26 1 131.603 156.475 175.871
27 1 -45.691 -87.191 -1.312
28 1 135.07 -7.236 4.901
29 1 65.308 88.914 154.98 
30 1 79.523 124.425 146.826
31 1 -30.025 7.795 177.771
32 1 -25.232 -46.098 -61.433
33 1 76.796 5.33 -142.045
34 1 -83.535 -2.723 72.768
35 1 132.01 -34.614 281.971
36 1 169.866 -31.046 -168.945
37 1 104.953 -63.808 -8.08 
38 1 196.185 -22.828 64.426
39 1 87.513 292.898 174.829
40 1 -103.021 -69.887 10.046
41 1 51.704 37.611 -57.506
42 1 226.533 -54.903 37.664
43 1 -24.033 -24.507 36.699
44 1 89.585 -79.1 77.91 
45 1 131.261 216.043 -8.081
46 1 248.658 130.074 28.745
47 1 31.201 213.32 135.347
48 1 23.034 -107.565 -244.95 
49 1 -1.932 122.024 72.429
50 1 44.189 114.749 259.109
51 3 107.524 87.397 0.902
52 3 24.729 -49.368 -10.35 
53 3 317.109 119.214 24.43 
54 3 -184.086 254.683 -196.315
55 3 254.836 138.878 -120.106
56 3 -75.747 -127.273 114.101
57 3 26.8 16.664 -83.539
58 3 -42.867 94.409 -99.036
59 3 -7.797 242.758 117.259
60 3 4.624 164.106 -186.803
61 3 273.07 -89.474 136.456
62 3 -35.274 0.837 -126.255
63 3 -10.669 84.059 34.8 
64 3 86.459 330.895 240.083
65 3 -107.958 127.829 145.286
66 3 -72.254 -20.575 -47.911
67 3 -7.847 193.24 -185.603
68 3 -108.681 -51.186 277.854
69 3 -37.899 -64.518 -69.97 
70 3 182.087 -46.567 -155.063
71 3 -65.57 181.255 123.416
72 3 -148.262 177.821 215.438
73 3 -28.993 29.796 192.449
74 3 -40.082 125.935 98.287
75 3 39.358 152.257 334.049
76 3 105.596 -123.422 197.479
77 3 -1.713 107.079 92.432
78 3 114.261 34.514 -88.666
79 3 27.521 -212.544 -22.833
80 3 39.617 -84.446 136.031
81 3 101.021 124.369 158.665
82 3 69.7 -69.968 205.686
83 3 385.494 262.261 -207.717
84 3 -4.166 108.974 17.759
85 3 22.406 103.29 123.685
86 3 290.15 -11.095 91.491
87 3 -61.845 -164.911 47.139
88 3 1.275 187.136 367.795
89 3 23.549 206.529 214.755
90 3 -210 331.297 23.613
91 3 11.882 15.184 358.539
92 3 64.408 351.65 255.25 
93 3 210.702 95.96 -44.88 
94 3 -74.386 -78.858 -85.664
95 3 24.385 -24.695 176.914
96 3 236.351 37.569 -1.252
97 3 83.371 316.708 145.238
98 3 199.386 -362.628 411.876
99 3 63.902 277.293 96.404
100 3 118.671 99.277 65.13 