LAMMPS data file via write_data, version 29 Sep 2021, timestep = 450000

2400 atoms
3 atom types

0 22.60338967909517 xlo xhi
0 33.90508451864275 ylo yhi
0 45.20677935819034 zlo zhi

Masses

1 18.998403163
2 6.938
3 22.989769

Atoms # atomic

32 1 1.3864190224759216 0.9729401767274309 3.05022517035756 0 0 0
57 3 2.429883215476832 2.856667168808855 1.5355342891291686 0 0 0
1942 1 0.31015904353247453 2.3222458114366775 0.1084456216617653 1 0 1
47 1 3.588174880809248 0.8366799863261573 0.4021187159284406 0 0 0
78 3 5.192939071013144 1.1226588011309202 1.7863614832966543 0 0 0
8 1 6.609111638761078 3.1312129238361397 0.6690959293377599 0 0 0
19 1 4.1236443735544475 2.9755289401783362 3.2141446491755925 0 0 0
40 1 6.710888928107357 33.49804709911328 0.983932552816772 0 -1 0
2239 1 9.188760655256512 1.8783069837369228 1.4405542249924792 0 1 1
100 3 10.843811442161037 2.056266720625305 2.785322310960285 0 0 0
75 3 7.832904407050751 3.2769439119025927 2.4754403117208126 0 0 0
551 3 10.830112517936069 0.21828508856346746 0.20604289534714929 0 1 0
470 3 8.270610190772812 33.738296717251764 2.887161927771516 0 0 0
195 3 13.1348893419851 2.257872809246283 0.8117951616525068 0 0 0
132 1 12.305161667735725 0.5273519518655522 1.808878078200699 0 0 0
196 3 13.871475546726316 0.3918947655603559 3.502327833466283 0 0 0
119 1 14.9207464694731 2.725311569219185 2.453356827979353 0 0 0
122 1 17.898844790278915 1.7880056469811185 2.780688417480195 0 0 0
189 3 16.16852424681177 1.5773750800939195 1.274310173364922 0 0 0
181 3 18.590674635288657 3.5997251414333666 1.5982677660642821 0 0 0
179 3 21.317516889330577 2.6819727782932485 1.255799514665105 0 0 0
105 1 20.524037619982987 3.6858572112496595 3.1290268221870567 0 0 0
1901 1 19.958610103177545 2.27416778927154 44.857592121181824 0 0 0
158 3 19.29116954239164 0.7488282826459606 1.380356148134957 0 0 0
509 1 20.8967907188348 1.1601352818291328 2.6322573930784516 0 1 0
35 1 1.0155633206871897 4.765633879181152 2.512563112272441 0 0 0
51 3 2.0118997612412928 6.741420466273772 1.6726272095477048 0 0 0
37 1 3.1510300168923164 4.586124706167401 0.20017761278710042 0 0 0
103 1 0.43605986779507144 6.329515181522055 0.3691688750083758 1 0 0
46 1 3.4562677392731045 7.026116120365694 3.227384351968851 0 0 0
86 3 5.095758828116879 4.8238908586376175 1.8064347716132136 0 0 0
1801 1 6.0922022940182785 6.764580345704881 0.7800264260075314 0 0 1
70 3 7.710507510908181 7.073653179657071 2.5098302973985964 0 0 0
23 1 6.734993417564603 5.364932630747528 3.4566540506854073 0 0 0
5 1 8.811642769186815 5.510867859741837 1.2205364254464453 0 0 0
188 3 10.365938638359614 5.660530011102801 2.8114034590741173 0 0 0
135 1 12.229199973448258 4.1623979705981125 1.7456059578690015 0 0 0
157 3 13.611155272190839 4.487053824087699 3.469645094429585 0 0 0
79 3 13.104108588263497 5.675254396573635 0.33574998475757495 0 0 0
146 1 14.791329928809432 6.298500959809933 2.05063953180046 0 0 0
108 1 17.43660107136075 5.013393789772602 2.949062472988105 0 0 0
373 3 15.73024000277796 4.780112263465499 1.0447632438511365 0 0 0
167 3 16.5907773205248 6.960246705556867 3.9188477882992623 0 0 0
394 3 18.783798263935104 6.634185529689064 1.4945354274650957 0 0 0
171 3 21.70073107079697 5.56403342945267 1.8571940888875966 0 0 0
138 1 20.319951521196923 6.6770112431656745 2.9919707578315093 0 0 0
1934 1 19.99021209817091 4.678512979785059 0.47765898957224634 0 0 1
41 1 0.9684985699370372 8.437571115346106 2.9270136833360105 0 0 0
371 3 1.889418005920139 10.105933322119805 1.7882159460404377 1 0 0
1806 1 3.0782727774422654 8.321202418278551 0.4595033672113058 0 0 1
2 1 3.462128866855483 10.323175069289288 3.2903704421197744 0 0 0
109 1 22.50555809960301 9.82412424489274 0.40224733242928 0 0 0
67 3 4.790859043444318 8.258277282509876 2.0324992721777018 0 0 0
247 1 5.7687139131156115 10.076332531449435 0.6026601804797579 0 0 0
60 3 7.515871292094221 10.571130476823994 2.1708689091976283 0 0 0
24 1 6.360528432703033 8.693590581109131 3.5061691734171565 0 0 0
38 1 8.983957260108903 8.909295279710825 1.0441005425128407 0 0 0
259 3 11.085714278604348 9.220822649633934 2.2825399294850026 0 0 0
141 1 11.66103340663876 7.28444369499143 1.6945213930350318 0 0 0
166 3 13.457434126439251 7.840186995509132 3.2298248940535816 0 0 0
333 1 11.62854934122476 11.168020450027731 1.358599057828924 0 0 0
160 3 13.154908272526576 9.126939000808495 0.4631494884083931 0 0 0
319 1 14.69937875081487 9.59431006367392 1.9811093479557358 0 0 0
307 1 17.477922326654696 8.306845623093315 2.3761638461922234 0 0 0
396 3 15.916922222967353 7.970305306693106 0.8602718689529644 0 0 0
170 3 16.34039727384318 10.54700159304964 3.615658827419654 0 0 0
375 3 15.814713553949183 11.330075372783735 0.6029277233252964 0 0 0
381 3 19.084519008174276 9.747842184772892 0.9328614921746696 0 0 0
90 3 21.71676817333934 8.445412322021474 1.834200632596512 -1 0 0
340 1 20.266148038232974 9.929737003818854 2.776962225145296 0 0 0
310 1 19.9961746745675 7.994796605968368 45.05519604947932 0 0 -1
327 1 0.36065248186281645 11.634196314465752 3.2978848803217575 1 0 0
400 3 1.4104917962498007 13.052982897091306 1.964631260009788 1 0 0
244 1 2.67604569158596 11.73289253394161 0.7121401367144493 0 0 0
214 1 3.116472526744324 13.75485188073155 3.240769444252575 0 0 0
296 3 4.547569087793334 11.639937488643884 2.048673809376231 0 0 0
1839 1 5.441364841964988 13.897423727507757 0.8268334591235525 0 0 1
256 3 6.899308275714091 14.102121779142244 2.751916705901382 0 0 0
207 1 6.420624763784114 12.124613869298726 3.5640795320738166 0 0 0
1829 1 8.427578907313544 12.486897352554761 1.3567315833633014 0 0 1
273 3 10.357773663439096 12.526894080418005 2.4818520351040334 0 0 0
2118 1 11.645253378891192 14.499320704230879 1.4379946173838594 0 0 1
93 3 13.483885678290225 11.380394464888944 2.980734609490894 0 0 0
2101 1 14.657839999230086 13.015384112052457 1.9339826503736464 0 0 1
294 3 12.904060559690205 15.051022987692855 3.1057511675427194 0 0 0
370 3 15.427692950006058 14.718494565069799 0.7406951643150925 0 0 0
322 1 17.388867945402676 11.846288065030695 2.1033757925739343 0 0 0
279 3 18.33671804027278 13.536998313697541 1.0081021121154043 0 0 0
384 3 16.08749078546925 13.569936210237003 3.449906966618158 0 0 0
379 3 20.97379481956847 11.684819359213419 1.766048222934811 0 0 0
323 1 20.161856019600215 13.527406533444164 2.4134165742936227 0 0 0
232 1 0.013286627781972982 13.245848043797922 0.3308432528813641 0 0 0
507 1 0.1586230714334206 15.56184460448144 2.857012022127871 1 0 0
219 1 2.5205672880632344 15.204154242571644 0.3987396151376796 0 0 0
362 3 1.2857131899170982 16.669543917912502 1.4656401549720885 1 0 0
208 1 3.048778525557631 17.22032997094984 3.302757456143726 0 0 0
299 3 4.170724821172142 15.285073703179338 1.903305920945626 0 0 0
212 1 5.302650904121603 17.0588694308461 0.7646480644417657 0 0 0
281 3 7.019156427863483 17.339538829069667 2.120679986856435 0 0 0
2042 1 5.831770538212828 15.944051374916818 3.9121632028176476 0 0 1
282 3 3.9675932488592713 18.821245886007496 1.9390625248531335 0 0 0
2001 1 5.835248332040949 19.37725382283979 3.503133932424776 0 0 1
238 1 8.213743889397682 15.699819374998752 1.0726567710143546 0 0 0
275 3 10.015718335058283 15.963507591452771 3.0797122630929743 0 0 0
203 1 10.73124171960248 17.471598218121045 1.7981530883705075 0 0 0
326 1 13.943792740563328 16.527315183166834 1.9650216666393125 0 0 0
2180 3 12.457086936398278 17.93247644004914 2.900374728420641 0 0 1
367 3 11.871075666460609 16.444875985637047 0.23863525775258376 0 0 0
547 1 16.986708998936432 15.346800100192258 2.419501113960738 0 0 0
285 3 15.213581229640747 18.51275785403193 0.5593465004217604 0 0 0
351 3 18.21429379808066 16.854183566130523 1.1242294124744183 0 0 0
2121 1 16.816848704353255 18.228705064944766 2.0916398294637153 0 0 1
354 3 15.775345628480684 16.939056617321693 3.3498857399849675 0 0 0
366 3 18.948444979983613 18.290695831859285 3.5927177201111546 0 0 0
356 3 20.895845550827946 15.000189584819651 1.21225421695121 0 0 0
302 1 19.92461038112274 16.658383999552782 2.3836825790973335 0 0 0
2054 3 20.804441072730818 18.36303510828423 0.887648944068382 -1 0 1
2050 1 2.4144786756992644 18.37882382331175 0.5392543548020926 0 0 1
365 3 1.0725995281573832 20.40287493491932 1.133348718272473 1 0 0
202 1 2.4974055365583396 20.65862047181993 2.898715021593476 0 0 0
309 1 1.9684057680086597 22.357184601100418 0.29490188832194525 1 0 0
454 3 3.4392462149114085 22.686428127503426 2.327501008006938 0 0 0
2006 1 5.357821686948112 20.375983378379498 0.575926188380931 0 0 1
270 3 6.705052183244763 20.79922821432575 2.175865569372284 0 0 0
2013 1 7.916970247785271 19.065382682331187 1.070863628925327 0 0 1
2261 3 9.609903571913872 19.32641867848514 2.5029159657696294 0 0 1
2106 1 10.65853122862536 21.400123272357273 1.845805523899052 0 0 1
223 1 8.347691529873707 20.975495060749484 3.5396269870825816 0 0 0
341 1 13.523728772506567 19.814716572564695 1.8875726153075705 0 0 0
390 3 12.817708522485358 21.717852138402023 3.059904963871512 0 0 0
2376 3 14.962815707086701 21.519057288065632 0.732610411084457 0 0 1
2394 3 18.09034179890902 20.272645185163952 0.7247009252151594 0 0 1
2242 1 16.56366503035415 21.81386113872936 2.0898604934657605 0 0 1
458 3 15.465733091146339 20.058249547956066 3.653937690721366 0 0 0
246 1 22.54766298970662 18.669039457880203 2.6434388703331315 -1 0 0
209 1 19.74452034206691 19.949194150628532 2.4355582691765356 0 0 0
2364 3 20.9646277247116 21.560351604431467 0.9615553434253161 0 0 1
505 1 22.222957030141124 22.17018352113216 2.539437081761009 0 0 0
241 1 22.04289546512284 20.204257499592366 44.92832779106168 -1 0 -1
432 1 2.597341135360837 24.351095235194656 3.062451597881947 0 0 0
573 3 0.6339629115679483 24.00228294669687 1.2139196975393243 1 0 0
2249 1 2.0403231396356922 25.54295078122325 0.1365233226051616 0 0 1
417 1 4.631109534520519 24.394480526605545 0.7538897168614211 0 0 0
481 3 6.50985513665305 24.373964822113347 2.5385476358321486 0 0 0
2039 1 7.456293490250089 22.899825383676717 1.174699843093596 0 0 1
2069 3 9.190720154536733 23.14062025233548 2.5155065037985818 0 0 1
2016 1 10.914557133634958 25.30141308743839 1.546096625157441 0 0 1
2183 3 11.951480079722115 23.204022379262437 0.2501231243019221 0 0 1
230 1 13.769768486875776 23.349610459603404 1.8484564231500265 0 0 0
473 3 12.565259015193995 25.09697566097064 2.826082830083524 0 0 0
2382 3 14.76717139295364 24.932032180809475 0.28133129275182084 0 0 1
594 3 15.500472083471331 23.49039838565314 3.299305452601299 0 0 0
479 3 17.787206688898646 23.947205656007736 0.5424892684796017 0 0 0
537 1 16.29765123449572 25.239131963082762 1.8595393975418473 0 0 0
589 3 18.210198969011003 25.571694097555707 3.4578146584294256 0 0 0
519 1 19.4222537966369 23.86278778340305 2.347981072298042 0 0 0
554 3 20.504428600085824 25.06945056107208 0.8904092716755876 0 0 0
517 1 22.219313333984527 25.623430807446336 2.2407028851581594 0 0 0
2342 1 21.840821545585616 23.363014394164857 44.963900220922916 0 0 0
452 3 3.6676400606073716 25.873066822683015 1.7947065496760344 0 0 0
510 1 2.4311117338717088 27.518537788625146 3.146585322293126 1 0 0
581 3 0.9711580187358505 27.403231956633256 1.1899792123980444 1 0 0
466 3 3.578619160378028 29.637726006022593 1.6304370418585576 0 0 0
444 1 1.8028802505869626 29.036939318852315 0.3346461140260873 0 0 0
408 1 4.641551219977571 27.80523127984876 0.48719722448908837 0 0 0
486 3 6.264068436820306 27.65782025475904 2.1622985188160726 0 0 0
2245 1 7.80322078818754 26.343922926388515 1.1638378375185559 0 0 1
422 1 5.62400411830164 26.263971040896596 3.8245325101523933 0 0 0
2374 3 9.607512217666574 26.88430509546137 2.2414668841476875 0 0 1
438 1 10.314252142328808 28.72691096961492 1.3407948307153137 0 0 0
2259 3 11.912664887043434 26.99092347952328 0.27562716921471075 0 0 1
471 3 11.582097058779436 29.056162444879195 3.2004613354676734 0 0 0
2236 1 13.39020381358747 27.482695159843395 2.266135940492395 0 0 1
2287 3 14.743416283627873 29.735675805103675 0.42117798794950073 0 0 1
2380 3 15.556967478182486 27.73208909318278 2.521536532555895 0 0 1
598 3 17.546659647017584 26.662805850765306 45.13462916262869 0 0 -1
2301 1 15.925376282215979 30.129785290992356 2.2296300205015718 0 0 1
567 3 17.813241061690118 29.33627417041547 1.0299398246548959 0 0 0
535 1 16.22402099056618 28.324485170199967 45.013382123546954 0 0 -1
525 1 19.15395153491588 26.490981748418253 1.762334263851778 0 0 0
502 1 19.461599876086645 29.610653202107326 2.3894935797278007 0 0 0
585 3 20.55505908778081 28.228364928029563 0.6913971354908955 0 0 0
446 1 22.178088387120056 28.54280783045747 2.237989107583037 -1 0 0
524 1 21.506348369350277 26.842469560867467 44.756271556689256 0 0 -1
54 3 2.892460652461002 32.930215780157845 1.7837720353248994 0 -1 0
49 1 2.095188791253224 31.010658197433102 2.8507782913897537 0 -1 0
451 3 0.22030483936777204 30.55911728386106 1.3099519080087572 0 0 0
402 1 1.0930682667051896 33.06289920946403 44.99345375329669 0 0 -1
412 1 5.321340021478265 29.47577119577254 3.017313929455228 0 0 0
17 1 7.588472660888009 30.059480299815068 0.7937349911209958 0 -1 0
424 1 4.500873499161458 31.30325278219771 0.5297292408878564 0 0 0
498 3 5.692382724478754 31.481095245156297 2.2127088147617315 0 0 0
15 1 4.490080259213414 33.31284133321737 3.506164306051893 0 -1 0
413 1 7.239072699994589 31.974580927651925 3.9038990879659123 0 0 0
588 3 8.94318713855693 30.04635282557468 2.5485414159510973 0 0 0
409 1 9.728718010679765 32.463734073972226 1.5825955009259574 0 0 0
590 3 11.581555202476187 30.42762079091132 0.054286938828212644 0 0 0
410 1 10.264883126560534 30.48461597385562 4.513632621557044 0 0 0
460 3 8.250067271456523 32.2160785138124 0.10658154409703037 0 0 0
94 3 11.310397372070906 32.79960903121413 3.4983242922868714 0 -1 0
541 1 12.647845034443113 30.906949507995623 2.0772945507602802 0 0 0
586 3 13.298890432889273 32.66452475839497 1.11235109861019 0 0 0
493 3 14.090208315322315 30.570571494614722 3.491880750238948 0 0 0
546 1 15.231995313745154 33.02220688887555 2.319108190775571 0 0 0
570 3 16.738254928013017 32.16696192978431 1.1173140788908988 0 0 0
107 1 18.573660197840372 32.13734800014305 2.5816553909154893 0 -1 0
2363 3 20.007880434591197 31.528921940206963 1.175784093741773 0 0 1
2339 1 21.75837440066771 31.98044409111047 2.6658211636510436 0 0 1
159 3 0.8858023301767611 1.4214551012840708 6.662574851296617 1 0 0
14 1 1.615798178774405 3.3981441707392364 5.543631014404763 0 0 0
96 3 3.4170229556729628 1.1507907143003677 4.129826567075235 0 0 0
11 1 7.074242084569508 1.4646101156017157 3.9805176896722103 0 0 0
617 1 4.5398132626581935 1.4563090633983493 6.05816932057676 0 0 0
62 3 5.125151404024603 3.698929063460382 4.87389506884688 0 0 0
4 1 7.0219999298908276 3.4809017767245596 6.411654417412638 0 0 0
28 1 7.464404733558612 0.05437859640863328 6.728108757964868 0 0 0
87 3 8.769331832866497 1.9836999146315746 5.460359507595619 0 0 0
27 1 9.920516787921517 0.4373213234842999 4.287232046160629 0 0 0
36 1 10.562942186592256 1.9532239425694229 6.676045762380026 0 0 0
25 1 9.557450489175285 3.730410073212971 3.746130204335943 0 0 0
56 3 11.559899124685193 0.5554232493471962 5.687243663939988 0 0 0
114 1 12.304828370162307 2.0800198099925256 4.379617054271824 0 0 0
164 3 14.565867894370504 2.189372292085982 6.033476960748185 0 0 0
149 1 13.445029456643864 0.8238600560160937 7.25869857196748 0 0 0
154 3 16.56080376181275 3.254001926445759 3.942599691734565 0 0 0
178 3 17.57485852431246 0.8491408277259871 6.2623876676601435 0 0 0
115 1 15.778944721222976 0.823752533909525 4.820402725799924 0 0 0
125 1 18.49937133599339 3.2123699148699156 5.255833397096553 0 0 0
593 3 0.18529532412277874 3.019703738191789 3.8379585610146285 1 1 0
194 3 19.78496960161148 1.9561521974580551 4.293069228433224 0 0 0
508 1 21.46666608419515 1.4253705728866104 5.524453141726016 0 1 0
200 3 2.078915563684443 5.400262067665453 4.3002362487765105 1 0 0
110 1 1.0423716702255381 6.87176375716698 5.808254748210543 1 0 0
74 3 0.19306286598686123 5.465431495163668 7.286610270789621 0 0 0
80 3 2.7219945938246397 7.187651586542551 7.457545847439592 0 0 0
12 1 4.184328469918014 5.412092559655608 5.84652796111299 0 0 0
66 3 5.2713281811980925 6.950353472108075 4.702892654925365 0 0 0
31 1 7.114633081984129 6.938888210385301 6.49276099671302 0 0 0
82 3 8.157321307030955 5.669233307594254 5.138172143033033 0 0 0
34 1 10.00056773489926 5.892837270638596 7.294937885684252 0 0 0
10 1 9.147066175562582 7.08719972856558 4.081176488752505 0 0 0
118 1 13.457731403482299 4.365545631120638 7.753737879468399 0 0 0
53 3 11.094516540385111 3.7760105467607206 5.352442150976946 0 0 0
126 1 12.18019351310929 5.740519565510422 4.904595638018084 0 0 0
180 3 13.791584380770558 6.3386332659123035 5.907788220613957 0 0 0
112 1 15.401392626213978 4.825368301015008 4.7016029417506005 0 0 0
182 3 16.507480553787868 5.162464259358313 6.76111832483916 0 0 0
123 1 17.962669973619075 7.006302897871347 5.6717665438222316 0 0 0
150 1 15.524846084048365 7.064137896035705 7.810643004992732 0 0 0
175 3 19.369542739806576 4.963117641262964 4.384316522064222 0 0 0
156 3 21.889509259386262 6.691826437493094 4.690128973869552 0 0 0
127 1 20.92426786747609 5.3144521106349725 5.656944547599588 0 0 0
165 3 19.790371443963178 6.778914351365396 7.114680626192971 0 0 0
88 3 2.2202487337708217 8.474408459752034 4.905515767745632 0 0 0
26 1 1.0557676405277212 10.10702095015475 5.840165419475064 0 0 0
192 3 22.409041361156106 8.973026532748058 7.301180712412862 0 0 0
20 1 3.9636359989118257 8.3845624721271 6.089238918321285 0 0 0
295 3 4.924916099850047 10.39895554046694 5.094741947161377 0 0 0
13 1 6.928654863356094 10.46584057695131 6.172365896498469 0 0 0
240 1 9.465269335018318 10.422734927808762 4.005813873613931 0 0 0
98 3 8.150173877195217 8.894129532166879 4.89044791459909 0 0 0
16 1 9.97111178986058 9.185594167418152 6.7866166655284506 0 0 0
85 3 11.095674190333591 7.56095325878052 5.93020602526282 0 0 0
92 3 10.92050777959052 11.092235106748431 5.538785591868283 0 0 0
121 1 12.900554688066718 8.244946843582678 7.685772358251471 0 0 0
30 1 12.448550331709285 9.644941312379872 4.193002911910242 0 0 0
155 3 14.029454667229363 9.522222578103959 6.268496941054928 0 0 0
120 1 14.88862876768538 8.014640594553669 4.943120970849784 0 0 0
198 3 17.085007400128355 8.648312484634516 6.761644558973438 0 0 0
124 1 18.01892682500928 10.163187215505832 5.431739221508995 0 0 0
185 3 19.182761692247198 8.466125137963644 4.258439572702591 0 0 0
193 3 21.953602725098104 9.990770480042833 4.261813030530026 0 0 0
130 1 20.962468274867643 8.748857992982495 5.8564233488162065 0 0 0
359 3 20.05614023866436 10.551607440758213 6.952205592946306 0 0 0
387 3 2.0846514626574426 11.495847712246228 4.526564330505856 1 0 0
233 1 0.4264296957191804 14.032970702409918 5.783436962545763 0 0 0
83 3 2.7257715526973754 13.964453429194425 7.454890114659609 0 0 0
215 1 3.5224155170472717 11.908857931502153 5.938207484967695 0 0 0
225 1 6.679656056463853 14.232377556289205 6.346307250376648 0 0 0
262 3 4.7069166486055645 14.032766836487458 5.006326787431311 0 0 0
205 1 8.758018996446006 14.32377318548815 3.880879880140631 0 0 0
55 3 7.991496925238143 12.553760386300029 5.0670091870204494 0 0 0
242 1 9.448215961003363 12.710421610058077 6.841687156438611 0 0 0
254 3 10.572989233166506 14.078580126920507 5.755696136720686 0 0 0
348 1 12.601113741024239 11.405075859630813 7.381745270387416 0 0 0
315 1 14.959938816924156 11.727145545960692 4.9731480277576 0 0 0
314 1 11.907558168655898 12.99756003715368 4.064150884401824 0 0 0
300 3 13.639498853006414 13.091246786847211 6.012110482976873 0 0 0
312 1 14.4833867124835 15.033492230788966 4.761964481705889 0 0 0
191 3 17.121884140489477 11.96541362444834 6.413585468693028 0 0 0
325 1 17.8372297759101 13.245917965460688 4.893105677227387 0 0 0
91 3 22.29071970866628 12.387616052455844 7.0194300966257535 -1 0 0
398 3 18.886021486840225 11.67494197903885 4.11893176129978 0 0 0
237 1 20.615609740563443 11.802128430697545 5.462144669513337 -1 0 0
274 3 21.580476724498297 13.763743957313864 4.240613798532623 -1 0 0
372 3 19.2738754604406 13.850286540054968 6.897738273654135 0 0 0
264 3 1.8485228286495663 15.401193660170373 4.298411375185761 0 0 0
218 1 0.5516230652100268 16.98321531497763 5.978723976862388 0 0 0
220 1 3.7222602129625795 15.330873497470089 6.2668636011411065 0 0 0
298 3 4.708644965830822 17.494818742926807 4.709081046838914 0 0 0
211 1 6.303325906455765 17.83196595574549 6.215048884142875 0 0 0
265 3 7.7620970288496505 15.837743764884674 5.310051119692142 0 0 0
222 1 8.652003622778096 17.733701439776226 4.34429214541854 0 0 0
234 1 9.587695970759821 15.729939852328638 7.140759982385153 0 0 0
459 3 10.433280365295497 18.22201606226118 5.696011956173543 0 0 0
227 1 12.469530444145326 14.208094311358144 7.159785372832409 0 0 0
210 1 11.667754502196026 16.568765335632744 4.172547408654087 0 0 0
364 3 13.063675690213335 16.48926093281958 5.75961110738972 0 0 0
320 1 14.359902346528669 18.52486821040042 4.703520428853051 0 0 0
533 1 12.191396792323884 18.118450588267972 7.447607157825791 0 0 0
382 3 16.611780147544696 15.300788059821024 6.278282289553205 0 0 0
313 1 17.276926080945476 16.871938687399318 5.230427299050893 0 0 0
380 3 18.549020121203245 15.19856396317291 4.049738201881142 0 0 0
342 1 20.416863697829577 15.274446480209933 5.357664777220716 0 0 0
361 3 18.84519611214554 17.13867076805018 6.855114424427636 0 0 0
981 3 21.92599254543417 15.66596346884805 6.872800762057267 0 0 0
353 3 21.492647215099392 16.834124673266125 3.9637110544453993 0 0 0
392 3 1.5751804662111832 19.250180267766485 4.39876396763261 1 0 0
226 1 22.57375996994144 21.02145728493678 6.014955023001178 -1 0 0
393 3 1.0897822374708745 22.692385950760446 4.058098603683974 1 0 0
433 1 2.8130291482700875 19.08111780528724 6.177010187650061 0 0 0
415 1 5.34689525578658 22.846478540660502 3.4450887871198868 0 0 0
2384 3 4.218707901982566 21.181949942576725 4.489045668245209 1 0 1
443 1 6.081640621786257 21.249215655276366 5.9555028638500085 0 0 0
266 3 7.592711347511077 19.222621908887128 5.200701873454384 0 0 0
388 3 10.3577062654059 22.088369478072927 5.215763470161212 0 0 0
213 1 9.238520356244122 19.657207385778744 7.031071846366818 0 0 0
407 1 11.226490179988057 20.01118645992147 4.613335208783157 0 0 0
355 3 12.956714976254792 19.940540693490117 5.947013486712175 0 0 0
405 1 14.132327668863882 21.681711450353482 4.7654139958801265 0 0 0
427 1 11.784695427853269 21.90195676729971 6.859590553382165 0 0 0
350 1 14.738803456587908 20.540276295677504 7.343542273176692 0 0 0
595 3 18.185723784974904 22.15222243619479 3.5981881141811964 0 0 0
391 3 15.803894674481292 18.772250862549015 6.513373726931058 0 0 0
549 1 17.35083235725885 20.12194750364543 4.669428192738702 0 0 0
377 3 15.643219388582141 22.273392732235177 6.192550548117645 0 0 0
902 1 17.459450187620448 21.949572502840738 7.384535796293323 0 0 0
2139 1 20.232120011313533 18.445582511200968 5.453658678612639 0 0 1
288 3 22.022287788122906 18.80017119279949 7.234016655142294 -1 0 0
578 3 18.6339763072452 20.333860545623946 6.311791726984987 0 0 0
251 3 20.946962138534687 20.325260458680365 4.346961701706281 -1 0 0
540 1 19.931977597143916 22.2521630065195 5.34398863531163 0 0 0
448 1 3.1127640797662934 22.69428411964943 5.56627052128952 0 0 0
556 3 1.0553384406477127 25.528076841847877 3.821191089915042 1 0 0
414 1 22.2462680209531 24.35271253023637 5.29190972824088 -1 0 0
480 3 3.7892799661115157 24.93452561826421 4.753453044224749 0 0 0
457 3 7.072434890122948 22.761238752268586 4.921743662934366 0 0 0
419 1 5.713556260905821 24.604588100681347 6.272109626075794 0 0 0
425 1 8.219966900672228 24.49645787651777 3.8494287533216682 0 0 0
401 1 8.894942267147606 23.36076460461902 6.624609058210646 0 0 0
1052 3 9.76130144969889 24.84239438174531 5.226747513482322 0 0 0
440 1 11.378529523367439 23.571689519786514 4.315237339366719 0 0 0
436 1 11.33262410386605 25.216965137205722 7.450528694117584 0 0 0
596 3 12.610389299865217 23.844730751382794 5.955738178898183 0 0 0
532 1 13.850972593839296 25.443138532686525 4.728738564200326 0 0 0
511 1 14.547383617082444 23.888565656208815 7.433044255959846 0 0 0
564 3 15.33690469684515 26.24875626739096 6.0043240567729885 0 0 0
515 1 16.779041841164762 24.09146875458715 4.905317371314818 0 0 0
557 3 18.570945918996088 24.283167370286982 6.478308928113935 0 0 0
522 1 17.23697697250996 26.170701359341837 7.521459598819734 0 0 0
559 3 21.20754038647107 22.468297174202235 7.157724750473204 0 0 0
496 3 20.94233019612626 23.51281098128572 3.8144733854533674 -1 0 0
527 1 19.87252440712443 25.762546210904855 4.65209888411921 0 0 0
553 3 21.46905235373682 26.24584668857765 6.517941550826804 0 0 0
418 1 2.5076592419111763 26.389144114009923 6.327028970799955 0 0 0
455 3 0.9375736695658647 29.288727530249083 3.9901990917085626 0 0 0
1179 3 1.3159453440603146 28.315254608420187 6.784038274820868 1 0 0
187 3 4.13109417849882 27.956817698437845 4.295303671123547 1 -1 0
538 1 22.224354839041755 28.069842352585407 5.671516294566224 0 0 0
467 3 7.66401726985686 26.536115765670157 5.096792474882873 0 0 0
420 1 5.105186912967619 28.415123763651735 6.412079691907411 0 0 0
477 3 3.9368814319217353 29.98225021278207 7.530261388132381 0 0 0
423 1 7.856865069576932 28.303548923597354 3.7350964690212374 0 0 0
404 1 8.534996898199545 26.416255472618925 6.7708434123372445 0 0 0
475 3 9.31796257629047 28.844830560272246 5.400493111041501 0 0 0
2201 1 10.494967614369498 26.663469430451855 4.234868603266828 0 0 1
526 1 11.018417915936551 29.22264646182791 6.747231629152639 0 0 0
482 3 12.726707325419504 27.1729481364713 5.593027410911067 0 0 0
520 1 13.393403142799057 29.457753720048082 4.984509240063496 0 0 0
514 1 14.196595590689217 27.917634419893474 7.268347790130835 0 0 0
591 3 14.929864624327404 29.713826038547754 6.310408612276978 0 0 0
566 3 17.033821462932757 29.970558052956566 4.132182822759228 0 0 0
512 1 16.523745429134422 27.838926139088663 4.500516325024804 0 0 0
1199 3 17.92780256767033 28.145072307372384 6.847773129546469 0 0 0
523 1 19.060121804787002 29.668650211024264 5.781884077264077 0 0 0
582 3 20.31716106678067 27.66918523846915 3.5201188404310724 0 0 0
575 3 20.890793430255545 29.412218313164907 7.048330854020358 0 0 0
426 1 2.4572877158535675 29.828795392501284 5.780730671510763 0 0 0
33 1 1.8859855653150899 33.413387731953904 6.031911048891686 0 -1 0
491 3 2.8755014729073434 31.86325418800155 4.743299057300134 0 0 0
569 3 0.5010371865681515 32.07130437035049 7.379374782433909 1 0 0
592 3 22.077123214485315 33.21922247210016 4.294910788790112 0 0 0
97 3 5.755619006473328 33.404433040935515 5.128589072816424 0 -1 0
689 3 6.536630080343061 29.864358151796218 4.983921275649228 0 -1 0
431 1 5.1903213559043575 31.748161393329923 6.431338724283503 0 0 0
434 1 7.730964344898576 30.5674082366098 6.627417495615992 0 0 0
59 3 8.828674877818239 32.211715520948026 5.730773466562878 0 -1 0
133 1 10.648437176303602 32.72843704624956 6.791978276710177 0 -1 0
492 3 11.770966082049313 30.93462428418868 5.813947248505057 0 0 0
430 1 12.912642329841265 32.85231201431777 5.021902989357698 0 0 0
577 3 14.742649096412613 33.24292805461768 6.330188244427406 0 0 0
555 3 17.257325946594165 33.65290450617035 3.7509296375737855 0 0 0
531 1 16.275877082391393 31.486364361731393 4.989493971203472 0 0 0
563 3 17.956411118814895 31.692088920223885 6.692455631467362 0 0 0
513 1 18.877421009575492 33.564060654515025 5.513908336047989 0 0 0
173 3 20.201356836457524 30.652725333222243 3.965702573836268 0 -1 0
565 3 20.548886824919208 33.60438737214897 7.02733044940639 0 0 0
530 1 21.536450248917724 31.84589134150205 5.874025539010289 0 0 0
644 1 2.4845365074697776 2.0978288744158977 8.569579136363963 0 0 0
673 3 4.091275293499981 1.885167306600837 10.66601640075528 0 0 0
84 3 6.234876456785009 1.80382646192367 7.676324803549302 0 0 0
50 1 5.1852487453456195 3.2904082652300226 9.073814122481235 0 0 0
1 1 7.861327248014446 1.9682937215838072 9.566398017743342 0 0 0
1190 3 9.379247849192824 0.5445729550379699 7.964205221105896 0 1 0
744 1 11.086432269922977 0.4385319397303689 9.691947836052202 0 0 0
72 3 9.745102310069386 2.327187034233476 11.063046945179774 0 0 0
148 1 13.832264236586347 2.346927101959824 10.71164046579764 0 0 0
174 3 12.22037414294796 2.5262774416596265 8.355035978909271 0 0 0
197 3 15.25419465980287 0.9031522258763012 9.193719861714564 0 0 0
111 1 16.30000115452769 2.6525456685950273 7.467660064750521 0 0 0
752 3 17.73496240964269 3.1986935295818766 8.812545085528056 0 0 0
707 1 17.094631690998394 1.2679550624563494 10.73967813390578 0 0 0
162 3 20.065695116159212 3.2325079895684676 6.939054064034575 0 0 0
128 1 19.515535080770317 1.3882277940114347 8.195865995658135 0 0 0
136 1 22.03767037372029 3.4096793617600833 8.364371026893826 0 0 0
172 3 20.92714019699333 1.7097509868752898 9.78233529874399 0 0 0
153 3 1.2729889224690925 3.5579597093605786 9.59835439228615 1 0 0
652 3 3.2173125749619156 3.7245662295580835 7.154705078429418 0 0 0
637 1 2.007978496752097 5.478427858312379 8.395664639786549 0 0 0
690 3 1.1537519375332164 6.945686104562197 9.958689447006277 0 0 0
681 3 3.6718718605443295 5.164648659708581 9.848265282587807 0 0 0
671 3 6.713845172825418 3.6610136250454017 10.346292750062247 0 0 0
699 3 5.821191438749938 5.4705902838963985 7.342551296778887 0 0 0
608 1 5.042154133040781 7.0778018581935545 8.946882941677828 0 0 0
61 3 9.241740012642218 4.103148196425218 8.337561793654107 0 0 0
29 1 7.86157733072713 5.5208009644746285 9.236978872897103 0 0 0
737 1 10.684424117454691 4.116291433361613 9.567058576852782 0 0 0
603 1 10.268452759154968 7.332449943680797 9.990051676704832 0 0 0
183 3 9.441943037572488 5.556398064815976 10.979953146526332 0 0 0
786 3 14.44937259562993 4.2761247439131305 9.506134966724982 0 0 0
69 3 12.072831541327032 6.191794947178079 8.675507165239221 0 0 0