FLiNa to FNa ratio: 1

100 atoms 
0  bonds
0  angles0  dihedrals
0  impropers

3 atom type
0  bond types
0  angle types
0  dihedral types
0  improper types

0.0 11.843292200496858 xlo xhi
0.0 11.843292200496858 ylo yhi
0.0 11.843292200496858 zlo zhi

Masses

1 18.998
2 6.941
2 22.99

Atoms

1 1 41.071 -267.26 114.17 
2 1 -119.662 136.835 183.533
3 1 -27.575 118.296 -31.857
4 1 9.122 179.009 127.859
5 1 -124.326 260.899 -27.177
6 1 -13.417 311.62 86.09 
7 1 -219.164 282.613 -92.495
8 1 -13.204 193.614 66.953
9 1 96.025 -46.181 9.669
10 1 140.046 65.467 -43.172
11 1 73.627 -60.357 60.1 
12 1 173.216 365.706 43.972
13 1 -103.756 76.089 -167.669
14 1 -11.964 7.293 125.656
15 1 91.24 4.811 -52.806
16 1 218.249 80.8 95.846
17 1 6.383 236.658 87.565
18 1 207.737 -61.945 -12.757
19 1 -67.733 -168.481 -26.161
20 1 116.533 -19.018 5.365
21 1 24.359 36.183 93.263
22 1 332.339 -95.867 -153.439
23 1 185.237 174.963 323.736
24 1 -17.33 312.841 22.333
25 1 341.132 57.851 18.202
26 1 144.518 171.831 193.131
27 1 -50.175 -95.748 -1.441
28 1 148.325 -7.946 5.382
29 1 71.717 97.64 170.19 
30 1 87.328 136.636 161.236
31 1 -32.971 8.561 195.217
32 1 -27.709 -50.622 -67.462
33 1 84.332 5.853 -155.986
34 1 -91.733 -2.99 79.909
35 1 144.966 -38.011 309.644
36 1 186.537 -34.093 -185.525
37 1 115.253 -70.07 -8.873
38 1 215.439 -25.068 70.749
39 1 96.102 321.644 191.987
40 1 -113.132 -76.746 11.032
41 1 56.779 41.302 -63.149
42 1 248.765 -60.291 41.36 
43 1 -26.392 -26.912 40.301
44 1 98.377 -86.863 85.556
45 1 144.142 237.245 -8.875
46 1 273.061 142.84 31.566
47 1 34.263 234.255 148.63 
48 1 25.294 -118.122 -268.989
49 1 -2.122 133.999 79.538
50 1 48.526 126.01 284.538
51 3 118.077 95.975 0.991
52 3 27.156 -54.213 -11.366
53 3 348.23 130.914 26.827
54 3 -202.152 279.677 -215.581
55 3 279.846 152.507 -131.893
56 3 -83.181 -139.763 125.299
57 3 29.43 18.299 -91.737
58 3 -47.074 103.674 -108.756
59 3 -8.562 266.582 128.767
60 3 5.078 180.212 -205.135
61 3 299.869 -98.255 149.848
62 3 -38.736 0.92 -138.646
63 3 -11.716 92.309 38.216
64 3 94.944 363.369 263.645
65 3 -118.553 140.374 159.544
66 3 -79.345 -22.594 -52.613
67 3 -8.617 212.205 -203.818
68 3 -119.347 -56.209 305.122
69 3 -41.618 -70.849 -76.836
70 3 199.957 -51.137 -170.281
71 3 -72.005 199.044 135.528
72 3 -162.813 195.273 236.581
73 3 -31.839 32.72 211.336
74 3 -44.015 138.295 107.933
75 3 43.221 167.2 366.833
76 3 115.959 -135.534 216.86 
77 3 -1.881 117.588 101.504
78 3 125.475 37.902 -97.367
79 3 30.221 -233.403 -25.074
80 3 43.505 -92.733 149.381
81 3 110.935 136.574 174.237
82 3 76.54 -76.834 225.872
83 3 423.326 288 -228.103
84 3 -4.575 119.669 19.502
85 3 24.605 113.427 135.823
86 3 318.626 -12.184 100.47 
87 3 -67.914 -181.095 51.766
88 3 1.4 205.501 403.89 
89 3 25.86 226.798 235.831
90 3 -230.609 363.811 25.93 
91 3 13.048 16.675 393.726
92 3 70.729 386.161 280.301
93 3 231.38 105.377 -49.284
94 3 -81.686 -86.598 -94.071
95 3 26.778 -27.119 194.277
96 3 259.547 41.256 -1.374
97 3 91.553 347.789 159.492
98 3 218.954 -398.217 452.298
99 3 70.173 304.506 105.865
100 3 130.317 109.02 71.522