LAMMPS data file via write_data, version 29 Sep 2021, timestep = 450000

2400 atoms
3 atom types

0 23.686584400993716 xlo xhi
0 35.52987660149057 ylo yhi
0 47.37316880198743 zlo zhi

Masses

1 18.998403163
2 6.938
3 22.989769

Atoms # atomic

1998 3 4.920053515536396 4.242642595039788 5.837059284637142 1 0 1
1343 1 3.472978718800916 3.903643512794077 1.3077426132894128 0 0 1
2298 3 0.12769427596939167 1.092805609869806 47.34872154327575 3 0 1
419 1 6.382692728094626 1.3083677641320317 1.2296123740430505 0 1 0
94 3 3.6767955021750893 1.7866001232711277 1.4864261080550283 -1 -1 0
357 3 11.416587703998259 2.378903748951909 0.7122176192448415 2 -1 0
1538 1 11.363397106253405 0.6568646886063791 1.958655916809878 0 -1 1
2198 3 7.3960518510632305 1.7176449899352992 3.67723385744719 0 1 0
1597 3 13.64763821889153 2.718371940678446 3.7723752011761116 1 0 -1
1532 1 13.607766664312383 2.8992806720638336 0.8663797986056248 1 2 1
1897 3 14.637417171495825 1.0524058294022258 1.5969815765455304 -2 0 1
1327 1 15.049418759832344 4.49998636022568 3.0979347773199906 0 0 1
2123 1 13.790569845132785 0.3609837989427102 3.4860290159407605 -1 2 1
336 1 19.684307399447142 1.8490206072245536 0.14205319428571428 1 1 0
2291 3 15.645192979408181 4.055949359156137 0.860801865462706 -2 1 1
1145 1 16.59270137701323 0.2932535309328805 2.3148789455740815 -1 0 0
1217 1 23.133710984743583 0.33978989797453335 1.908004578561083 -2 0 1
2281 3 20.843473981813112 0.2763070040148937 0.9373991805859556 1 2 0
395 3 2.4112448859518154 1.976487252259363 4.01879021693704 0 0 0
1626 1 0.7859823515035006 7.719563942734536 0.6622364247180555 0 1 1
876 3 2.15715551274019 5.055186457823911 3.6853875077284495 -1 0 0
776 3 3.016512385781881 3.620456709230782 46.26990258589444 -1 -1 -1
1486 3 6.826815317413756 3.1534155284908647 0.6544661622582195 1 -1 1
825 1 7.726729959263157 3.4214645318878376 45.59086508315921 1 1 -1
28 1 6.999634522702889 5.178598589542586 0.6664192998526984 2 -1 0
1949 1 10.211378392996364 4.530194110216841 0.47460402535010526 2 1 1
257 3 8.672692950380123 6.472399661057706 1.5309148222038838 1 0 0
2268 3 8.901351643860828 5.3028995533329235 46.184779235019604 1 0 1
1696 3 12.058868049298976 5.498364531872085 1.7289595932943722 2 0 0
1905 1 12.92192402129823 6.059598295175305 46.72441157571269 0 0 0
2095 3 17.139725077018593 5.492227186477391 3.1038391932140685 1 0 1
1426 1 17.152417484625527 6.00063721214781 0.829103679287979 -1 1 1
1233 1 19.329578593020056 4.444060376272796 46.743431294863925 1 -1 0
2166 3 19.040415521080917 5.967802678822969 1.1253207203663957 0 0 2
64 3 19.565280085942593 3.48097231918711 1.8079801808814802 -1 0 0
2302 1 21.267898604798024 5.197266070285678 1.4455188930187264 0 0 0
1067 3 2.4991928863661688 6.471357093618204 0.09956984282735906 2 0 0
1164 3 2.5003488966207223 9.816696904865005 0.43834648920318137 -1 0 0
1410 1 4.373844094818044 7.0803602414826985 1.4082459782451575 -1 0 1
2387 3 5.758416016678271 8.143508881573823 0.567987095490773 0 1 1
2111 1 9.897839847320208 7.738743738629632 0.1540543682607019 0 1 1
268 3 11.899490478151984 7.8267473401488274 0.056421881977009036 0 0 0
2321 1 8.14746626327271 8.632089599890149 2.4611438348673196 3 1 2
2170 3 14.610947250674124 6.925374457104678 45.83810368851561 1 0 0
2305 1 12.77639104091572 7.493645079859577 1.9389915902168258 1 -1 1
883 3 15.132369678171282 7.323542627641528 1.9436116070724363 -1 0 1
2021 1 14.806107522327828 8.767554802135804 0.2956935844309988 -1 1 1
1473 3 17.07010020656498 8.7377645560813 0.059244913859409165 -1 -1 1
1586 3 19.29618114996508 10.01495825567758 1.8352534410996908 -1 -1 1
632 1 19.710573805578132 8.021624960925944 0.5129739775880567 -1 0 1
1055 3 21.86332371135721 7.582202884589874 0.6934483443431742 -1 1 1
250 1 0.4916846611245545 6.2217163535852205 3.5191654186221006 0 -1 1
435 1 22.50120055184877 9.41239527888043 2.1190379221171867 -1 0 -1
1705 1 3.757694812002989 14.145447312775861 3.854549206594689 -1 1 -1
1255 3 1.0452448553445546 11.844662069879572 1.6190088553007302 1 1 1
1221 1 2.947036251744954 12.110960972280825 0.9176366259543962 -1 -1 1
2245 1 2.5243990770074034 10.364587047705566 3.203544943678706 1 1 1
2058 3 3.9852296303218258 11.571982369689383 2.8222294456101182 -1 -1 0
2132 1 5.023816310827939 10.10910048698796 1.4726750522608734 1 0 1
1555 3 6.178128592054883 13.956385353990232 3.0813694880237037 2 0 1
700 3 7.950378431009107 12.615467300292474 0.721396411302465 1 0 0
1813 1 9.0481673393014 10.944230242683858 46.514165470768475 0 -1 -1
349 1 7.7149887671388075 12.490342394288524 2.977079716488283 1 -1 -1
2183 3 9.717480416106314 9.752329050910841 1.4532645283588226 0 0 1
2290 3 11.178783701832362 11.832828160389425 46.70969281154575 2 1 0
1848 1 11.114856714363125 11.974036872020875 1.7287395407106472 -1 -1 1
1454 3 11.849999667263784 12.627951484240068 4.132270232214 1 -1 0
227 1 12.147596858712026 14.201482229011493 47.03885294798474 1 0 0
2197 3 15.84762570821639 10.63231785948735 1.8506691238466089 0 0 1
2326 1 13.871916317778608 11.832678014463879 0.612853432296323 1 1 2
1840 1 16.610220995739162 12.708164030366119 2.435922218435107 0 0 0
1603 1 19.627746634897775 11.459768488446104 0.22261216419535704 1 0 0
1658 3 17.707590043406174 12.863933475684618 0.6285115848864717 -1 1 0
706 1 21.48864740444257 15.44027936219631 47.35834972405103 -1 -1 -1
2190 3 18.454389920049632 11.860901479411334 4.14318010603902 1 2 1
592 3 20.569915754745818 13.95761322870844 2.1828476172204874 1 -1 0
1458 3 22.54963553293805 10.303932258365723 0.39013248688548724 0 -1 1
1630 1 20.65349826675744 11.9196049083483 3.282196647679757 -2 -1 0
1222 1 23.293941823663456 12.920683171070035 0.08567654443788761 0 0 1
1424 1 1.502532466194189 14.608720350860741 2.5320018026323523 0 0 1
577 3 1.703089089046411 17.244270586673593 46.96216068936738 0 0 -1
397 3 2.276868372261777 16.06758668694276 3.820183796673394 -1 1 1
2066 3 3.38384564852107 14.13418568051455 1.581767657374152 0 -1 0
1404 1 6.077536541283003 17.46961365997665 1.7288609325181226 0 0 0
910 1 6.101815032440905 13.815558338668005 1.084345770954992 -1 1 0
1524 1 9.934912211454998 16.425479939444543 2.151935855602919 0 0 0
1210 1 8.958442263864026 16.69284430941202 47.03471164026838 0 0 0
1651 3 10.736198702459642 18.207687959512512 0.5686034002180144 -2 0 1
1130 1 11.518154969768604 14.557400339472292 3.636489207813364 0 0 1
957 3 10.7053069098127 15.002375238796168 1.0069773916760558 0 0 0
1584 3 13.779332491227958 15.578490225414155 46.7913517305335 -1 0 -1
1643 1 13.783764186795842 15.67910063992903 1.8458607183851712 1 1 1
1973 3 16.83234202066058 16.14363914566292 0.9108420562284896 -1 1 1
932 1 18.5222534937736 15.29230707411401 1.7621571934276208 1 -1 1
1442 1 17.936566620978134 16.14437090156687 46.16346780947259 0 0 0
972 3 19.632058842782364 16.551319442139036 47.11266737506652 1 -1 0
1794 3 23.303946762328746 14.888689130473237 1.0540031547809128 2 0 0
45 1 22.111909323973784 14.916081744888038 3.2738252297277572 -1 0 0
1493 3 22.883830223563244 17.279300072492095 3.499971129760696 -1 1 1
1831 1 2.7685489972979282 19.218453487521653 0.3880310588419237 0 -1 1
2142 1 3.4112188419432186 17.656330121998916 2.665932462392345 -1 0 0
1464 3 1.7501897442593626 18.795240296097415 2.470361187503297 1 0 1
2055 3 4.4841367576457465 18.460347628122836 0.8097554950595756 1 0 1
1293 3 8.206806970838864 17.412218997219984 1.4387948986373085 2 -1 1
712 1 5.008971710290854 20.542887334133496 1.2074821740050328 -1 -1 -1
296 3 4.317165361243602 19.901597194029108 3.2437839258239474 0 0 0
829 1 8.82355368240992 19.411361695956792 1.960760642991218 -1 0 1
2296 3 10.390535934090018 20.6874724747325 3.225175754180128 -1 0 0
1245 1 12.222289758386017 18.70614449553751 2.3967701457385724 0 0 1
2324 1 10.413847597592598 20.381866647944328 47.15842151449164 -1 1 -1
1997 3 13.737319164532561 17.76683285867778 1.77685389322017 0 0 0
946 1 15.072755836835453 19.26914856362542 2.595848792173318 -1 1 0
386 3 15.011006205029048 21.62655736856402 2.418769636890671 -1 1 -1
2120 1 12.443435959917117 21.722442091141335 2.2258896140740867 -1 -1 1
895 3 16.255362791638934 18.8982964976911 0.9757180950948421 0 0 0
831 1 18.557208555142378 18.97835186633466 0.1308143563778369 0 0 1
559 3 19.10791919332281 20.043916517682728 2.330769169744685 0 0 1
1226 1 16.820693811063048 17.263357261572292 2.6908717108623086 -2 -1 1
1004 1 0.6275541312046109 17.403567197523138 1.2750346077722767 1 0 1
2227 1 20.570438858738292 18.239594651185765 2.465777939755503 0 1 1
2196 3 21.473342482625704 19.41891036355664 0.4970718149019821 -1 2 1
1077 3 3.545825781607184 22.190873535772322 0.9166818779052164 -3 -1 1
1219 1 23.01531032510706 20.246254972966184 1.2622315277924434 0 0 0
683 3 1.2046674174428256 24.12581566517183 3.4140856151285845 -2 0 0
1050 1 2.4235618936723204 21.971089761862736 2.843011777212144 1 1 0
2040 1 3.4970536582664975 24.755447001753105 1.3087889207313155 -1 0 1
355 3 5.31082862025242 24.690757826120745 0.5237651548911663 1 0 0
2213 1 7.300144029656057 23.020751939490516 0.3508961739635748 -1 0 1
1093 3 7.619045369687128 20.730861970638752 0.9432370165125372 -1 0 1
264 3 9.980467228687084 22.32731721586171 0.030009105850246486 -1 -1 0
1423 1 8.824145447658161 21.97680138822504 2.754038478882187 -1 0 0
1029 1 11.051019501959932 24.268779991458548 0.4966453261847609 -1 0 1
1983 3 7.805235409458844 23.860914191983156 2.6118476831440094 2 2 2
2067 3 12.558697072708284 22.90667468855527 3.873623866940648 0 1 1
1832 1 15.139494275863541 20.29270041349534 47.285677812243264 -2 -1 0
13 1 14.916353154857424 23.9756563390251 2.5870628779092852 -1 -1 0
2182 3 19.295978462335068 23.052020223006373 1.5982966093691546 0 -1 1
309 1 17.562290912171164 21.80555911847996 2.2929602237619404 -3 0 -1
2173 3 17.639096597046038 21.51944127369202 0.14172883681744652 2 -1 1
1031 1 20.130066901444224 21.335105889683533 0.016351656970120164 0 0 0
497 3 22.086648579239117 22.041969255643885 2.111752310962013 -2 1 0
350 1 21.32514363389597 23.922087483924535 1.2897185773766198 -1 0 0
1886 3 23.63005519641818 27.304520175980887 2.692665260979395 0 0 1
443 1 0.8014521774699391 25.618523942147746 1.5462029577561693 1 0 0
1330 1 3.3726867088005235 27.122684804611044 3.1572026967708062 1 0 0
657 3 2.673475020724493 26.693022355988422 0.7042574930326904 -1 0 2
803 1 0.6228626427473342 28.368004731397107 0.6286796593244134 -1 0 0
1735 1 5.374928538706259 26.809986383272292 47.06996850099837 0 -1 -1
899 3 7.934590198464846 27.519083333954907 1.9130615417429508 0 1 0
2186 3 5.06934444059641 27.576758787674635 2.0102453670269136 1 -1 1
2250 1 5.822549617961755 25.22470214851574 2.984000417832303 1 1 1
1939 1 8.880868962474608 25.84035594711949 2.7000416455731067 0 0 1
784 3 11.214175957733554 25.956440615488923 1.905740203636824 -2 0 0
1248 1 9.40410968833651 27.414427287313806 47.05422828169601 1 -2 -1
354 3 13.357620413814825 24.198202063879226 1.2156152659264199 -1 -1 -1
732 1 12.470510253521168 24.945188402994297 3.5651020283945853 1 -1 0
1085 3 11.899547835218803 29.147684075612048 1.8259402790380064 -1 0 0
1020 1 12.339220647987997 27.79386948757923 3.6494491746286895 0 0 1
1797 3 16.810349215814753 24.522310506981054 1.6388770642378976 0 0 0
929 1 19.01646734494344 25.240754330785006 2.4143734373462173 -3 -1 1
9 1 18.91234175635389 28.286727819999886 4.456043502809481 0 1 0
969 3 21.19599470404909 25.425599800852762 2.8432423322158207 -2 0 0
2348 1 21.255047283913758 27.373626150774015 2.2699560574980846 0 0 0
1551 3 0.22575904599234592 26.89802295500261 46.45351028502059 1 0 0
1695 3 2.3043105059588567 29.30478272801478 2.4144143385642027 -1 0 1
2034 1 3.6520509308778326 30.98240087388273 2.688892065022503 -1 -1 1
933 1 0.08304761788033017 29.524219084057005 2.7725674441420995 0 -1 0
1095 3 1.5126286700126523 31.80216846518987 2.811231804495856 1 0 0
1203 1 6.666497500417708 29.280172126627328 1.250570989888293 0 -1 0
2108 1 3.1742787567966686 28.74649838223675 0.6781965437819043 -1 1 1
376 3 4.712354126816724 30.18097655943168 0.9369223483207593 0 -1 0
814 1 9.178276792174751 29.01113128456255 2.285304576866772 0 2 1
1981 3 8.778908852653359 30.44388673495301 0.8995163467783672 1 -1 0
1593 3 10.619795564947205 31.898393214837178 2.414866758858278 1 0 0
1867 3 16.2660789081182 33.492341022777744 1.3046995358278317 -1 0 0
2358 3 13.01258312286627 31.287147656695808 0.3172410693853837 -1 0 1
43 1 16.857020736833256 29.741659395104307 3.51882083770084 -1 0 1
659 3 18.91974481630605 32.25598893894743 0.7810472260112578 -1 -1 0
572 3 18.61081979115249 27.578834050962413 1.7962428449372136 1 -1 0
1212 1 20.09230691818153 30.23341021047636 1.650778975092745 -2 0 1
275 3 22.502177452681988 29.928527053707818 1.3718579771346333 -2 0 0
452 3 20.803940849122935 28.693626465511127 3.7537704507867207 -1 -1 0
756 3 3.625457953617019 34.279288392377865 1.9243461591450977 2 -2 0
1925 1 1.7172185179863224 33.30173089178388 1.255486680213001 2 -2 0
789 3 0.5704841169888025 34.75815690604013 3.4423669851624257 2 -2 0
937 1 2.886910463926489 0.07822265179404457 3.361530321002391 -1 2 1
494 3 6.29121613787523 34.667913551056216 1.4206603745223942 -1 -1 1
530 1 5.186813725378169 33.90733899497385 3.3832237430205088 -1 -1 0
272 3 7.699715903298696 33.26226396965236 4.032334989177555 0 0 0
1699 3 9.534644671047628 34.827975351419425 2.083604357282585 1 -1 -1
2015 1 8.291625672258075 31.791953366604165 2.2556873685432857 -2 0 1
1908 1 7.387091091460394 35.020565880365545 3.377817275439451 0 1 1
1706 1 11.402268377273096 33.36197346376177 0.9319502445434567 -1 -1 0
135 1 10.269807972790344 33.511936926450836 3.892432839007979 0 0 -1
2155 3 7.1667496878208645 32.82273427878285 46.90022101061118 2 -2 -1
2049 1 12.851185789582896 31.711137162279407 2.5290722967515653 0 -1 1
180 3 14.762751458466491 34.92522419052165 5.585269842058455 -2 0 0
565 3 12.704474477412369 34.37037720563269 2.595553176468658 0 -1 0
1501 1 17.478224586680675 32.49917196788544 2.5404326673334854 0 -2 1
1798 3 18.042547292292 0.571746593485927 0.8531149355614381 -1 0 0
1360 3 23.136379174985155 33.49993115284234 0.784336143300322 1 -1 0
50 1 23.143343214633003 33.08457521033952 2.866868326750545 -3 -1 -1
801 1 20.767387457889164 33.71708739201254 0.8717078965029387 0 0 1
1673 3 20.924794302412653 32.97373425506867 3.260155459675145 -3 0 2
1307 1 1.0007194430241313 0.38586769035631086 5.373732569034218 0 1 0
374 3 23.02948409234565 1.9958807543742056 5.652790902026997 -1 0 0
1 1 5.369778811316672 2.2190718454991316 4.9918886270033855 0 1 -1
1177 3 5.120266048284026 1.8663831211863888 7.462059673887453 1 1 0
1494 3 7.735190239158611 5.245935778504247 4.636710607901051 2 2 1
1637 1 9.540047790890384 1.516332244916972 4.240298233412104 -1 1 0
763 3 9.403393358883102 2.3191693066642296 6.628306058396043 -1 1 1
195 3 11.484212000172207 0.6858726526808699 4.500270762235757 -1 1 0
516 1 15.540053061239808 1.5317147871464671 5.897814491964779 0 1 0
1073 3 15.420630667666055 0.8156554084196973 8.292702383638265 0 1 -1
1972 3 16.830734510548602 2.345928546268059 3.8854877986847693 1 0 1
1803 1 18.173374908466673 0.9049476626631453 5.574407877485852 0 1 1
979 3 22.2553565436026 2.0023227652875537 2.5131677845074645 2 1 0
36 1 21.187551434823426 3.1106739471814526 4.434873908991485 -2 -1 1
2169 3 19.777004117709016 1.5663314707361602 4.72062209633384 -1 -1 0
1820 1 21.45323846188288 0.4164768324522397 6.206382872223799 1 0 0
1147 1 2.8797847513909174 7.490642513292728 5.20045490181133 1 1 1
2329 1 2.1562834890344793 3.7929965265652763 5.428966329102537 0 1 1
1143 1 4.745959834685857 5.199847172908934 4.120193677467298 0 1 0
696 3 5.163576419027048 5.045502305317711 2.1122672785470122 0 1 1
2311 1 7.556048885966787 3.705145287980761 3.0266344910839114 1 1 0
248 1 6.545262333921911 5.76371655139983 6.417593079633457 0 0 1
677 3 4.727857729909237 6.6511028091104825 5.64831947918801 -2 0 0
1821 1 9.78470826882315 6.119865854750116 3.526732212578481 1 0 2
798 3 8.581855616741809 6.115176644785584 7.6045707017616175 -2 0 0
1065 3 9.617906916754295 3.5881091162615064 2.7960361653879784 1 0 0
959 3 10.934265189983266 5.997670949689313 5.061888961674725 0 1 1
945 1 9.677625533838524 4.630571758941456 6.171696379373493 1 0 0
786 3 11.924155366371336 3.904471877924834 5.935369619762242 3 1 1
649 1 11.672111111958476 4.0560395165961625 3.736190330841639 -1 0 1
321 1 17.2226982136801 4.153187413949904 5.011248399445266 0 -1 0
15 1 15.681929489639183 7.1873785935147225 3.944021941320384 -1 1 0
305 1 17.38132427738843 3.5295017111771285 1.8838143789988482 0 0 0
780 3 19.527084952612434 4.68949371694478 5.226829601411489 -1 0 0
2008 1 19.786427376760425 6.809721004762198 6.589909719914698 0 2 0
1738 1 19.399919472333355 6.178910069527773 3.8149427117707067 1 -1 0
1134 1 0.46983021562301835 3.322210310168929 2.7649214323114015 1 1 0
857 3 22.382995792666204 4.727671725899718 3.700001892018463 0 1 0
25 1 22.225441393000704 5.320835989265877 6.086600338884994 -1 0 0
1281 3 1.0045905020258488 8.375802135746595 2.77764920184588 1 0 1
952 3 3.8153115114867204 8.46968822878708 3.1790638966957885 2 0 1
212 1 23.064866714855683 8.836018894763122 5.024312521385659 -2 0 0
1744 1 2.254247025070967 9.872072292149053 6.866988577831991 1 1 0
1349 1 5.94351953469411 8.217722928330119 4.682062104387893 0 0 0
667 3 6.712657361211674 9.941611371472879 3.647198406448183 -1 -1 1
54 3 4.639572183745065 10.246862503045074 6.21184350332239 0 0 0
2037 1 9.791686679895376 7.74343448751897 6.464467271885679 0 1 0
1499 3 9.230181845899873 8.11603756425332 4.289677222764461 2 1 0
2070 3 10.995279314899134 10.62282744571602 6.044474055911609 -1 -2 0
1533 1 11.138704569378815 10.273739447006733 3.8945560589658093 -1 0 1
2162 3 13.412445182843603 7.974526431048221 4.134249305471755 0 0 1
1552 3 12.917934782940565 10.06226251143835 1.7817693465533293 1 0 1
1052 3 15.192487556686977 10.273854029941152 5.793355071406002 0 1 0
1624 1 12.744098146910238 9.510821507677004 6.839026833512131 -1 2 1
2023 1 17.529455438694523 8.850147158255712 2.1116971462690457 1 0 2
1827 1 17.311202606701457 9.225113099467897 6.025620315267098 -2 0 0
1461 3 18.08260179752303 8.297705153403204 4.241112348368745 -1 0 1
994 3 21.13568052611818 7.740349185544112 4.677309819486035 -1 1 0
705 1 19.696632371258747 9.502901096710628 4.588838558609372 -1 0 0
1352 3 1.7136973997194882 11.085590926421533 5.114182993696613 0 0 0
917 1 1.8321914409719955 12.99360893917074 6.814642667346922 -2 0 0
821 1 5.305947958666649 11.813846427656607 4.355326021795612 0 1 0
1109 1 6.884998665611026 15.592237418731065 4.202549814972561 2 -1 0
2168 3 6.936774743507995 12.674244039637019 5.535306201878592 1 -1 1
361 3 4.071281968495649 13.602872109591829 6.145474228996591 0 0 -1
244 1 8.355543077980425 10.224868554110387 5.36062772446614 0 0 -1
1992 3 9.101629168018144 11.435841987921963 3.923349969505337 2 0 1
1708 1 12.735446389386178 12.333610921577286 6.104037725737466 0 0 0
73 3 11.21301126672632 13.069110046575469 7.867694396153168 0 -1 -1
540 1 9.143915504831677 13.193080135668657 5.456439449431787 3 -1 0
521 1 14.484179666447012 9.760149881515394 3.4852511770166847 -1 1 0
2365 3 13.861186569313208 14.118634457019313 6.1618647085918035 -1 1 0
1529 1 14.801554863531527 14.23338307989675 4.266305131464111 1 0 0
859 3 14.438347672588256 13.5659060559431 1.7542004847476622 0 -1 0
950 1 14.586508831902059 15.116927973818617 7.91391324544654 -1 0 1
1002 1 19.407189887874353 13.411013426308356 5.501767413992761 0 1 0
1171 3 22.335780600791455 10.785570044019748 3.8082550759406932 -1 2 1
387 3 21.433832083939045 12.763680177958243 5.197550283550928 0 -1 0
919 1 0.018365363197159826 12.24193130484028 4.677951655666979 0 0 0
2260 3 0.6562093334726758 14.128358496525912 4.502316802535962 2 1 0
1353 3 1.1581945990195408 15.683190073509067 7.113274482696269 0 -1 1
1230 1 0.7498914026245829 16.223961760378025 5.270064358934638 2 -1 0
1716 1 3.7536742189435683 16.32496441184153 5.41330627362597 0 1 0
1389 3 5.255164945373502 16.963343967066567 3.601114085687302 0 -1 0
2203 1 7.518702468850261 17.02595969517257 7.429622584172219 1 0 1
1332 1 6.204478315478681 13.995161491664247 6.995892560446534 -1 -1 0
456 3 9.2032913086363 15.207554174558004 3.697773810004414 0 0 0
1265 3 10.525489296830743 17.654772734688578 3.87814140601188 1 0 0
838 1 9.58949686016306 16.50750511795958 5.305675373368443 2 0 0
477 3 13.41031382695507 15.624224695599624 3.9857940574681185 1 0 0
2000 3 17.07574837521643 14.045417452079596 6.594837911564292 0 -1 1
1446 1 17.447678117214323 16.095625388744427 5.324335408407346 -2 0 0
1882 3 18.84377494884391 17.035405197870876 3.801512290053207 -2 -1 1
1081 3 14.18564050382222 17.260446017035942 7.271839710232571 1 -1 -1
2363 3 16.538793036142273 15.083938000323673 3.2419954953633567 0 1 0
2064 3 21.213235649265073 15.544712598578604 5.1940114174814545 -4 0 1
908 1 21.359917613846953 17.47746921605913 6.346784887294937 -1 0 0
487 3 2.7431946924418895 17.861009928538632 5.939950380292515 0 1 0
1525 1 2.9745797328544112 20.083867963296132 4.914863419305815 1 0 0
1259 3 7.298639394625576 20.280905516439145 3.870737924985823 1 0 1
602 1 6.106059460364997 18.559125770844354 4.529844647551838 -1 0 0
1492 3 5.562453149598328 20.718443296974883 6.488916336086608 1 0 0
1122 1 6.840857822432284 20.576095733815897 7.999046490839187 -1 2 1
555 3 8.000567237434035 17.70903573045084 5.499187762372859 -2 0 0
1535 1 9.490915396954122 19.411447502393763 5.193465995188253 -2 -1 0
1787 3 13.674455012442841 19.539642941895195 4.088003077312002 1 0 1
1686 3 10.827565210444297 17.36838842552145 6.653798120998758 -3 1 0
315 1 12.605989642965785 16.924786645292155 5.643645961723711 0 0 -1
574 3 16.538630315662243 18.340133948762723 4.8127118582345805 -2 0 0
2230 1 14.823013637518697 18.736730371899064 5.815167118257282 0 0 1
1322 1 18.46159527016313 19.111190988710398 4.648645542422535 0 0 1
1273 3 17.023243913082425 19.841900408637578 7.176605500888312 0 -1 -1
1096 3 20.885856779645316 19.888616262722987 4.617395706482119 -2 1 -1
543 1 0.40305880591629323 19.03593511326104 4.373005178190881 1 0 -1
585 3 3.6352798231557797 22.12740336869591 4.93120666117954 0 -1 1
872 3 0.904158927575176 20.773318290646547 4.806789607716052 1 0 1
1277 3 0.5498024986776536 23.054521382946948 6.188641778805896 1 -1 1
2101 1 0.43195183781441604 21.35256098052096 7.6624174803141685 0 -1 1
341 1 5.652535066387945 21.31504907051287 4.263209148868456 0 0 0
800 3 7.358566751438715 23.470874005393494 7.50658093150242 1 0 -1
481 3 9.386731919542731 20.960185593585525 7.201594288156437 -1 0 -1
124 1 10.979442704620611 22.199547713439056 4.981415037011727 0 0 -1
579 3 10.009785863546428 24.409000984391007 4.401473478231978 0 0 0
2214 1 7.770660539584014 25.20648587242361 5.9996954247243695 -2 -1 0
1208 1 14.371133122192449 21.7923670853392 4.495616957610231 -2 0 1
905 1 14.099577884360281 24.841464903542867 6.444124599873984 -2 -1 0
1382 3 11.814333526728989 23.518261647833054 7.000617285736235 0 -2 0
1853 3 15.545577132526414 23.65068388242032 5.283004314735671 -1 -1 1
997 3 18.32763274262343 22.41175031785801 4.539261797472088 -2 0 0
230 1 17.677255868671395 24.179136088941686 5.209519662973003 0 0 0
858 3 18.772911960907706 24.51209430589891 7.1677941923446955 -1 0 0
2207 1 23.33360581545408 22.933071803858162 4.2955097293069935 -1 -1 1
1126 1 19.559486712656227 22.895907721019285 6.765048119052942 0 1 0
35 1 21.97526299779996 20.775111285362666 6.1563590162032185 -2 0 0
603 1 20.256132832153458 21.635297419032515 3.3129366330821037 -1 -1 0
298 3 21.495705330945917 23.031102275271213 5.613526380674047 -1 0 0
707 1 2.3374062517776113 23.885076092227614 5.230412364994749 1 -1 1
2397 3 2.070702143571302 26.30087669123505 6.403508953093789 0 0 2
1548 1 0.8176341624141877 26.358121189068235 4.6047888996369455 2 -1 0
1846 1 0.7775769172439333 28.097415617844693 7.570928271022644 0 0 1
369 3 3.93245819128778 24.93212188904452 3.9879845886896224 -1 0 0
1940 1 4.393836833979895 26.211293697202144 5.759200133824688 0 -2 1
862 3 6.138377489020601 26.470239176594056 7.675332822635307 -2 0 -1
961 3 6.8947073340440195 26.298088996317563 4.413819001518522 0 0 0
1605 1 8.243350827067243 28.263342911991362 7.440416247046692 -1 -1 1
99 3 9.962360324098976 27.62840189168703 4.193397282751793 -1 -2 0
1038 1 10.71842304851412 26.10390538512797 5.978722989488426 0 0 0
757 3 13.376800124831776 26.025549573158088 5.127589656493768 0 0 0
1285 3 15.479136895633614 26.162002286214502 7.115270468986646 0 0 0
332 1 15.752454952909824 26.82885882003114 4.731361910170383 -2 0 0
1160 3 18.477770717405107 25.879330430845275 4.326198390964404 1 1 0
747 1 17.212510921824947 27.820751501105 7.320423113464721 -1 0 1
852 3 20.33583378896173 27.36708069069648 6.03289010782925 1 -1 0
1132 1 20.701946757733143 25.364051109676343 5.090176103071915 1 0 1
2265 3 23.110255264760664 26.128278509706025 6.281974343571362 0 0 0
563 3 4.305135479264499 27.96533514052241 5.2684503120874036 -1 0 0
150 1 2.436525053752384 29.229726788088538 4.942122259836401 0 -2 0
2352 3 22.80865905823093 31.853649687092016 4.839645106509754 1 1 0
1443 1 6.248870677563144 28.299079176197832 4.406957676376447 -2 -1 0
473 3 6.798132311292848 29.59571385578291 6.243307010559737 -1 1 1
851 3 7.524202976324813 30.398584983842234 3.4517161377022374 -1 -1 1
1319 1 9.931687738823706 29.780591162057956 5.123607689693335 0 0 0
884 3 11.938312796702583 29.40757988351879 5.793990678723014 0 -1 1
2061 3 14.547951312243239 29.422841368968534 7.830174447846239 -2 0 1
773 3 14.394169152912507 28.382919797880188 3.7427398953701156 0 -1 1
1918 1 13.757246096390933 27.881136987201476 6.49418473822187 0 0 0
143 1 10.946486166539733 30.783108474078738 7.00698404147252 2 -1 0
2089 3 17.07997638260844 28.90329624953992 5.574125486963633 -1 0 1
1546 1 14.15917089167248 30.495740138822875 5.471020389040822 0 0 0
1138 1 17.890207404657698 30.971702030576605 6.172743859158016 1 1 0
269 3 0.4372450656693631 28.967897898800423 5.60216484739481 -1 0 0
1951 3 18.26303669728945 31.244511129523858 3.911694132662738 1 1 0
2313 1 22.12298569640507 28.41531354643078 5.300850617607381 0 0 1
1051 3 3.1421660278394223 34.144813926396765 5.239082598161093 -1 0 1
836 1 1.4274800904663723 32.976662437253985 4.993780055974021 -1 -1 1
1749 1 3.9429744258395036 32.14633435511539 6.254318540095043 0 1 1
1290 3 3.872074207232246 30.97829727195636 4.64451898252002 0 -1 0
1266 3 5.261815399982583 0.14180333821295252 4.38222181612625 0 1 1
1550 1 5.25658263616603 35.15069206545988 6.299967584693853 1 0 0
492 3 5.9777787228964785 33.167084777115655 5.91369115723206 0 0 0
719 1 8.380908095509344 33.76921930806628 6.733156613385964 -1 0 0
98 3 9.969969976612424 32.2249881392042 6.0229960807547664 1 -3 0
720 1 6.630875689450968 31.357832570071814 5.09145443669077 2 -2 -1
2383 3 13.80430191961968 33.78230389458789 8.938545887530097 -1 0 0
1606 1 12.589120931542817 34.50530210344748 6.79583187021981 -1 1 0
1861 3 15.90211560675606 31.904198187234538 6.52076594812111 -2 0 0
1471 3 14.886801238082521 31.51557291828613 3.641007836730851 -1 1 1
2220 1 15.672283070770481 33.27104229439149 4.426711196453142 -2 0 0
1590 3 17.32054143513202 34.506775180436804 3.7806892684885107 0 1 1
922 1 20.443974068961012 31.89909144470271 4.894648204479247 -1 0 0
65 3 17.470965112891967 33.76573317867538 8.36151468522348 -2 0 0
1105 1 22.275567113199752 33.30792658957308 7.253949258193132 0 0 0
102 1 19.698403279607472 0.1420759712038783 3.0495716106654815 0 1 1
1697 3 20.758500487200788 34.18509062649152 6.354040379298599 1 -1 0
134 1 2.2433771383162755 35.46539525942304 8.60456709690742 0 -2 0
158 3 1.0321622537630055 1.7725866845927798 9.3824856082667 1 -1 -1
441 1 2.9496854058162802 3.0016382572247635 9.634578783405251 0 0 0
1927 1 23.363576759020347 35.3374787885781 9.560875818375234 -1 -2 1
407 1 5.727205256569835 0.7002133550933077 9.375307016990774 0 1 1
2276 3 3.42589339649971 0.5225016482810817 10.313801839228065 -1 0 1
1301 1 7.467257285238674 4.034655120749372 11.052461758957273 0 0 1
2031 1 7.570447411285521 2.8276206173830123 8.094353961412567 -2 2 0
1734 1 9.783497564819255 0.7428270517190209 9.048505628329398 0 0 0
2069 3 7.959488382076077 35.305469964548905 8.60345279710983 -1 -1 1
1381 3 10.670094698579062 34.81952724614915 10.879173047365231 1 0 0
249 1 11.216163564860583 1.712886525417831 6.290177156002894 -2 -1 -1
1829 1 13.464657287199161 0.6569258292952457 9.509106098444175 0 0 0
2195 3 13.087011515899011 1.2411480509486885 7.414629888920784 0 -1 0
1172 3 17.148412397346636 3.5820637793986156 6.932732784565947 0 1 1
1909 1 16.271550830515718 2.3789925996365966 9.259592042649391 1 -1 1
1202 1 19.40536725146746 3.597833887313191 7.053997315767189 -2 0 0
1666 3 18.29419039705777 1.2356540810311085 7.989924726014824 -1 0 1
2080 3 21.79424440893119 0.6201721444364565 8.331583041839224 -2 0 1
2224 1 20.55206671938006 1.5574674902485188 11.474860860693012 0 -1 1
1775 3 1.075762781008192 6.5082938579157705 5.919311827082686 2 2 1
194 3 1.6879838369121387 4.167943249743931 7.778371816995267 1 1 0
1505 1 0.9356210535278155 5.963985097457437 8.128096563339335 0 -1 1
537 1 3.529960510339889 5.357707363458221 7.4311402927730414 0 1 -1
2093 3 5.989013828743611 5.045480169449779 9.570804276653089 1 1 0
1253 3 6.596895892624185 2.1487510565294072 10.934870465382252 1 0 1
1814 1 7.383337686349002 8.688846594203122 9.168224872842261 -1 0 1
915 1 10.21568276330128 6.695171731309343 9.419630737482452 -1 0 1
781 3 10.28864533207817 4.903124440820873 12.990305679437377 0 1 0
779 3 9.059162777809435 3.052254138185939 9.772610134848854 -2 1 0
1857 3 15.02076008590323 5.48120596619682 5.293367182489808 -2 -1 1
2206 1 12.994478553972883 6.193006808590518 5.730622730811945 0 0 0
1545 1 12.842427508134582 3.4021589217990154 7.92309444917215 -1 0 0
896 3 14.555420897240726 3.243003379346823 9.677282955816406 0 0 0
2124 1 16.546806861927433 5.4453092590557945 7.3256663847568895 -1 1 2