FLiNa to FNa ratio: 1

100 atoms 
0  bonds
0  angles0  dihedrals
0  impropers

3 atom type
0  bond types
0  angle types
0  dihedral types
0  improper types

0.0 11.251879369227783 xlo xhi
0.0 11.251879369227783 ylo yhi
0.0 11.251879369227783 zlo zhi

Masses

1 18.998
2 6.941
2 22.99

Atoms

1 1 37.072 -241.235 103.052
2 1 -108.01 123.51 165.66 
3 1 -24.89 106.776 -28.755
4 1 8.233 161.577 115.408
5 1 -112.219 235.493 -24.531
6 1 -12.111 281.275 77.707
7 1 -197.822 255.092 -83.488
8 1 -11.918 174.76 60.433
9 1 86.674 -41.684 8.727
10 1 126.408 59.092 -38.968
11 1 66.457 -54.479 54.248
12 1 156.348 330.094 39.69 
13 1 -93.652 68.679 -151.341
14 1 -10.799 6.583 113.42 
15 1 82.355 4.342 -47.664
16 1 196.996 72.931 86.512
17 1 5.762 213.612 79.038
18 1 187.508 -55.913 -11.515
19 1 -61.137 -152.074 -23.614
20 1 105.185 -17.166 4.842
21 1 21.987 32.659 84.181
22 1 299.976 -86.531 -138.497
23 1 167.199 157.925 292.211
24 1 -15.643 282.377 20.159
25 1 307.913 52.218 16.43 
26 1 130.445 155.099 174.324
27 1 -45.289 -86.424 -1.3 
28 1 133.882 -7.172 4.858
29 1 64.733 88.132 153.617
30 1 78.824 123.331 145.535
31 1 -29.761 7.727 176.207
32 1 -25.01 -45.693 -60.893
33 1 76.12 5.283 -140.796
34 1 -82.8 -2.699 72.128
35 1 130.849 -34.31 279.491
36 1 168.372 -30.773 -167.459
37 1 104.03 -63.246 -8.009
38 1 194.459 -22.627 63.859
39 1 86.743 290.322 173.291
40 1 -102.115 -69.272 9.958
41 1 51.249 37.28 -57 
42 1 224.541 -54.42 37.332
43 1 -23.822 -24.292 36.376
44 1 88.797 -78.404 77.224
45 1 130.106 214.143 -8.01 
46 1 246.471 128.93 28.492
47 1 30.927 211.444 134.157
48 1 22.831 -106.619 -242.795
49 1 -1.915 120.951 71.792
50 1 43.8 113.739 256.83 
51 2 106.579 86.629 0.894
52 2 24.512 -48.934 -10.259
53 2 314.32 118.166 24.215
54 2 -182.467 252.443 -194.588
55 2 252.595 137.656 -119.049
56 2 -75.081 -126.153 113.098
57 2 26.564 16.517 -82.804
58 2 -42.49 93.578 -98.165
59 2 -7.729 240.623 116.228
60 2 4.583 162.663 -185.16 
61 2 270.668 -88.687 135.256
62 2 -34.964 0.83 -125.145
63 2 -10.575 83.32 34.494
64 2 85.699 327.984 237.971
65 2 -107.008 126.705 144.008
66 2 -71.618 -20.394 -47.49 
67 2 -7.778 191.541 -183.97 
68 2 -107.725 -50.736 275.41 
69 2 -37.565 -63.95 -69.354
70 2 180.486 -46.157 -153.699
71 2 -64.994 179.661 122.33 
72 2 -146.958 176.257 213.543
73 2 -28.738 29.533 190.756
74 2 -39.729 124.828 97.423
75 2 39.012 150.918 331.111
76 3 104.667 -122.336 195.742
77 3 -1.698 106.138 91.619
78 3 113.256 34.211 -87.886
79 3 27.279 -210.674 -22.633
80 3 39.268 -83.703 134.834
81 3 100.132 123.275 157.27 
82 3 69.087 -69.352 203.877
83 3 382.103 259.955 -205.89 
84 3 -4.129 108.015 17.603
85 3 22.209 102.382 122.597
86 3 287.598 -10.998 90.686
87 3 -61.301 -163.46 46.725
88 3 1.264 185.49 364.56 
89 3 23.342 204.713 212.866
90 3 -208.153 328.383 23.405
91 3 11.778 15.051 355.385
92 3 63.842 348.557 253.005
93 3 208.849 95.116 -44.485
94 3 -73.732 -78.165 -84.91 
95 3 24.17 -24.478 175.358
96 3 234.272 37.238 -1.241
97 3 82.638 313.922 143.961
98 3 197.632 -359.439 408.253
99 3 63.34 274.854 95.556
100 3 117.627 98.404 64.557