LAMMPS (29 Sep 2021 - Update 2)
OMP_NUM_THREADS environment is not set. Defaulting to 1 thread. (src/comm.cpp:98)
  using 1 OpenMP thread(s) per MPI task
# lmp -in therm.lammps
# Muller-Plathe method via fix thermal_conductivity

# conda activate nequip_cuda10.1
# export CUDA_VISIBLE_DEVICES=2
#   lmp -in run_therm_1300
# nohup lmp -in run_therm_1300 > therm_1300_job.out #job =8154
# 1) Initialization
units metal
dimension 3
newton off on
atom_style atomic
boundary p p p



# 2) System definition
read_data	Therm_1300_restartpoint.lammps
Reading data file ...
  orthogonal box = (0.0000000 0.0000000 0.0000000) to (22.503759 33.755638 45.007517)
  1 by 1 by 1 MPI processor grid
  reading atoms ...
  2400 atoms
  reading velocities ...
  2400 velocities
  read_data CPU = 0.011 seconds

#read_data	tttt.lammps
#read_data	test.lammps

# 3) Simulation settings
pair_style	nequip
pair_coeff	* * FLiNa_f_pyt10.2 F Li Na #Li F Na

# 4) NPT:
thermo 1
minimize 1.00e-9 1.0e-9 1000 10000000
WARNING: Using 'neigh_modify every 1 delay 0 check yes' setting during minimization (src/min.cpp:188)
Neighbor list info ...
  update every 1 steps, delay 0 steps, check yes
  max neighbors/atom: 2000, page size: 100000
  master list distance cutoff = 7
  ghost atom cutoff = 7
  binsize = 3.5, bins = 7 10 13
  1 neighbor lists, perpetual/occasional/extra = 1 0 0
  (1) pair nequip, perpetual
      attributes: full, newton off
      pair build: full/bin/atomonly
      stencil: full/bin/3d
      bin: standard
Per MPI rank memory allocation (min/avg/max) = 5.108 | 5.108 | 5.108 Mbytes
Step Temp E_pair E_mol TotEng Press 
       0    1315.6211   -10557.043            0   -10149.075    12745.544 
       1    1315.6211   -10633.647            0    -10225.68    12745.544 
       2    1315.6211   -10700.702            0   -10292.735    12745.544 
       3    1315.6211   -10758.199            0   -10350.232    12745.544 
       4    1315.6211   -10796.808            0    -10388.84    12745.544 
       5    1315.6211   -10824.168            0     -10416.2    12745.544 
       6    1315.6211   -10844.157            0    -10436.19    12745.544 
       7    1315.6211   -10860.076            0   -10452.109    12745.544 
       8    1315.6211   -10871.084            0   -10463.116    12745.544 
       9    1315.6211   -10878.307            0   -10470.339    12745.544 
      10    1315.6211   -10886.286            0   -10478.318    12745.544 
      11    1315.6211   -10891.802            0   -10483.834    12745.544 
      12    1315.6211   -10900.037            0   -10492.069    12745.544 
      13    1315.6211   -10904.682            0   -10496.714    12745.544 
      14    1315.6211   -10910.905            0   -10502.938    12745.544 
      15    1315.6211   -10914.579            0   -10506.611    12745.544 
      16    1315.6211    -10920.22            0   -10512.252    12745.544 
      17    1315.6211   -10922.736            0   -10514.769    12745.544 
      18    1315.6211   -10927.941            0   -10519.974    12745.544 
      19    1315.6211   -10929.786            0   -10521.818    12745.544 
      20    1315.6211   -10934.354            0   -10526.386    12745.544 
      21    1315.6211   -10936.291            0   -10528.323    12745.544 
      22    1315.6211    -10939.99            0   -10532.023    12745.544 
      23    1315.6211   -10942.082            0   -10534.114    12745.544 
      24    1315.6211   -10944.493            0   -10536.526    12745.544 
      25    1315.6211    -10946.77            0   -10538.802    12745.544 
      26    1315.6211   -10948.726            0   -10540.758    12745.544 
      27    1315.6211   -10950.697            0    -10542.73    12745.544 
      28    1315.6211   -10952.768            0     -10544.8    12745.544 
      29    1315.6211    -10955.23            0   -10547.263    12745.544 
      30    1315.6211   -10957.917            0   -10549.949    12745.544 
      31    1315.6211   -10960.061            0   -10552.093    12745.544 
      32    1315.6211   -10962.004            0   -10554.036    12745.544 
      33    1315.6211   -10963.934            0   -10555.966    12745.544 
      34    1315.6211   -10965.564            0   -10557.597    12745.544 
      35    1315.6211   -10967.139            0   -10559.171    12745.544 
      36    1315.6211   -10969.145            0   -10561.177    12745.544 
      37    1315.6211   -10970.503            0   -10562.535    12745.544 
      38    1315.6211   -10972.536            0   -10564.568    12745.544 
      39    1315.6211   -10973.478            0    -10565.51    12745.544 
      40    1315.6211   -10975.204            0   -10567.236    12745.544 
      41    1315.6211    -10976.83            0   -10568.862    12745.544 
      42    1315.6211   -10978.405            0   -10570.438    12745.544 
      43    1315.6211   -10979.768            0     -10571.8    12745.544 
      44    1315.6211   -10981.315            0   -10573.348    12745.544 
      45    1315.6211   -10982.603            0   -10574.635    12745.544 
      46    1315.6211   -10983.682            0   -10575.714    12745.544 
      47    1315.6211   -10984.687            0   -10576.719    12745.544 
      48    1315.6211   -10985.823            0   -10577.856    12745.544 
      49    1315.6211   -10986.361            0   -10578.394    12745.544 
      50    1315.6211   -10987.153            0   -10579.186    12745.544 
      51    1315.6211    -10988.25            0   -10580.282    12745.544 
      52    1315.6211   -10988.803            0   -10580.835    12745.544 
      53    1315.6211    -10989.34            0   -10581.372    12745.544 
      54    1315.6211   -10990.343            0   -10582.375    12745.544 
      55    1315.6211    -10991.19            0   -10583.223    12745.544 
      56    1315.6211   -10992.005            0   -10584.037    12745.544 
      57    1315.6211   -10992.662            0   -10584.694    12745.544 
      58    1315.6211     -10993.4            0   -10585.433    12745.544 
      59    1315.6211   -10994.022            0   -10586.055    12745.544 
      60    1315.6211   -10994.746            0   -10586.778    12745.544 
      61    1315.6211   -10995.572            0   -10587.605    12745.544 
      62    1315.6211   -10996.261            0   -10588.293    12745.544 
      63    1315.6211    -10996.87            0   -10588.902    12745.544 
      64    1315.6211   -10997.356            0   -10589.389    12745.544 
      65    1315.6211   -10997.785            0   -10589.818    12745.544 
      66    1315.6211   -10998.541            0   -10590.573    12745.544 
      67    1315.6211   -10999.358            0   -10591.391    12745.544 
      68    1315.6211   -11000.125            0   -10592.157    12745.544 
      69    1315.6211   -11000.623            0   -10592.655    12745.544 
      70    1315.6211   -11001.169            0   -10593.201    12745.544 
      71    1315.6211   -11001.726            0   -10593.758    12745.544 
      72    1315.6211   -11002.188            0   -10594.221    12745.544 
      73    1315.6211   -11002.769            0   -10594.801    12745.544 
      74    1315.6211   -11003.218            0    -10595.25    12745.544 
      75    1315.6211   -11003.569            0   -10595.602    12745.544 
      76    1315.6211   -11003.907            0    -10595.94    12745.544 
      77    1315.6211   -11004.206            0   -10596.238    12745.544 
      78    1315.6211   -11004.652            0   -10596.685    12745.544 
      79    1315.6211   -11005.025            0   -10597.058    12745.544 
      80    1315.6211   -11005.469            0   -10597.501    12745.544 
      81    1315.6211   -11005.853            0   -10597.885    12745.544 
      82    1315.6211   -11006.172            0   -10598.204    12745.544 
      83    1315.6211   -11006.543            0   -10598.575    12745.544 
      84    1315.6211   -11006.933            0   -10598.965    12745.544 
      85    1315.6211   -11007.185            0   -10599.217    12745.544 
      86    1315.6211   -11007.451            0   -10599.484    12745.544 
      87    1315.6211   -11007.649            0   -10599.682    12745.544 
      88    1315.6211    -11007.85            0   -10599.882    12745.544 
      89    1315.6211   -11008.113            0   -10600.146    12745.544 
      90    1315.6211   -11008.483            0   -10600.516    12745.544 
      91    1315.6211   -11008.894            0   -10600.926    12745.544 
      92    1315.6211   -11009.081            0   -10601.113    12745.544 
      93    1315.6211   -11009.307            0   -10601.339    12745.544 
      94    1315.6211   -11009.601            0   -10601.633    12745.544 
      95    1315.6211   -11009.826            0   -10601.859    12745.544 
      96    1315.6211    -11009.95            0   -10601.983    12745.544 
      97    1315.6211   -11010.134            0   -10602.166    12745.544 
      98    1315.6211   -11010.539            0   -10602.571    12745.544 
      99    1315.6211   -11010.759            0   -10602.791    12745.544 
     100    1315.6211   -11011.023            0   -10603.056    12745.544 
     101    1315.6211   -11011.187            0   -10603.219    12745.544 
     102    1315.6211   -11011.334            0   -10603.366    12745.544 
     103    1315.6211    -11011.51            0   -10603.542    12745.544 
     104    1315.6211   -11011.796            0   -10603.828    12745.544 
     105    1315.6211   -11011.983            0   -10604.016    12745.544 
     106    1315.6211   -11012.145            0   -10604.177    12745.544 
     107    1315.6211   -11012.274            0   -10604.307    12745.544 
     108    1315.6211   -11012.417            0   -10604.449    12745.544 
     109    1315.6211   -11012.554            0   -10604.586    12745.544 
     110    1315.6211    -11012.67            0   -10604.702    12745.544 
     111    1315.6211   -11012.771            0   -10604.803    12745.544 
     112    1315.6211   -11012.989            0   -10605.022    12745.544 
     113    1315.6211     -11013.2            0   -10605.233    12745.544 
     114    1315.6211   -11013.412            0   -10605.444    12745.544 
     115    1315.6211   -11013.649            0   -10605.682    12745.544 
     116    1315.6211   -11013.947            0    -10605.98    12745.544 
     117    1315.6211   -11014.187            0   -10606.219    12745.544 
     118    1315.6211   -11014.401            0   -10606.434    12745.544 
     119    1315.6211   -11014.611            0   -10606.644    12745.544 
     120    1315.6211   -11014.807            0   -10606.839    12745.544 
     121    1315.6211   -11015.047            0   -10607.079    12745.544 
     122    1315.6211   -11015.217            0   -10607.249    12745.544 
     123    1315.6211   -11015.327            0    -10607.36    12745.544 
     124    1315.6211   -11015.485            0   -10607.518    12745.544 
     125    1315.6211   -11015.703            0   -10607.735    12745.544 
     126    1315.6211   -11015.904            0   -10607.937    12745.544 
     127    1315.6211   -11016.064            0   -10608.097    12745.544 
     128    1315.6211   -11016.295            0   -10608.327    12745.544 
     129    1315.6211   -11016.597            0   -10608.629    12745.544 
     130    1315.6211   -11016.844            0   -10608.876    12745.544 
     131    1315.6211   -11017.072            0   -10609.105    12745.544 
     132    1315.6211   -11017.312            0   -10609.344    12745.544 
     133    1315.6211   -11017.556            0   -10609.588    12745.544 
     134    1315.6211   -11017.784            0   -10609.817    12745.544 
     135    1315.6211   -11018.014            0   -10610.046    12745.544 
     136    1315.6211   -11018.215            0   -10610.247    12745.544 
     137    1315.6211   -11018.426            0   -10610.458    12745.544 
     138    1315.6211   -11018.646            0   -10610.678    12745.544 
     139    1315.6211   -11018.865            0   -10610.898    12745.544 
     140    1315.6211    -11019.08            0   -10611.112    12745.544 
     141    1315.6211   -11019.302            0   -10611.334    12745.544 
     142    1315.6211   -11019.461            0   -10611.493    12745.544 
     143    1315.6211   -11019.626            0   -10611.658    12745.544 
     144    1315.6211   -11019.845            0   -10611.877    12745.544 
     145    1315.6211   -11020.023            0   -10612.056    12745.544 
     146    1315.6211   -11020.315            0   -10612.348    12745.544 
     147    1315.6211   -11020.518            0    -10612.55    12745.544 
     148    1315.6211   -11020.761            0   -10612.793    12745.544 
     149    1315.6211   -11020.999            0   -10613.031    12745.544 
     150    1315.6211   -11021.198            0   -10613.231    12745.544 
     151    1315.6211   -11021.392            0   -10613.424    12745.544 
     152    1315.6211   -11021.555            0   -10613.587    12745.544 
     153    1315.6211   -11021.721            0   -10613.753    12745.544 
     154    1315.6211   -11021.868            0   -10613.901    12745.544 
     155    1315.6211   -11021.987            0    -10614.02    12745.544 
     156    1315.6211   -11022.149            0   -10614.182    12745.544 
     157    1315.6211   -11022.312            0   -10614.345    12745.544 
     158    1315.6211    -11022.44            0   -10614.473    12745.544 
     159    1315.6211   -11022.576            0   -10614.609    12745.544 
     160    1315.6211   -11022.688            0    -10614.72    12745.544 
     161    1315.6211   -11022.812            0   -10614.845    12745.544 
     162    1315.6211   -11022.927            0   -10614.959    12745.544 
     163    1315.6211   -11023.074            0   -10615.107    12745.544 
     164    1315.6211   -11023.193            0   -10615.226    12745.544 
     165    1315.6211   -11023.324            0   -10615.357    12745.544 
     166    1315.6211   -11023.441            0   -10615.474    12745.544 
     167    1315.6211   -11023.524            0   -10615.557    12745.544 
     168    1315.6211    -11023.63            0   -10615.662    12745.544 
     169    1315.6211   -11023.729            0   -10615.762    12745.544 
     170    1315.6211   -11023.824            0   -10615.857    12745.544 
     171    1315.6211   -11023.928            0    -10615.96    12745.544 
     172    1315.6211    -11024.01            0   -10616.042    12745.544 
     173    1315.6211   -11024.104            0   -10616.136    12745.544 
     174    1315.6211     -11024.2            0   -10616.233    12745.544 
     175    1315.6211   -11024.281            0   -10616.314    12745.544 
     176    1315.6211   -11024.409            0   -10616.442    12745.544 
     177    1315.6211   -11024.537            0   -10616.569    12745.544 
     178    1315.6211   -11024.709            0   -10616.741    12745.544 
     179    1315.6211   -11024.813            0   -10616.846    12745.544 
     180    1315.6211   -11024.951            0   -10616.984    12745.544 
     181    1315.6211   -11025.073            0   -10617.106    12745.544 
     182    1315.6211   -11025.205            0   -10617.237    12745.544 
     183    1315.6211   -11025.355            0   -10617.388    12745.544 
     184    1315.6211   -11025.479            0   -10617.511    12745.544 
     185    1315.6211   -11025.598            0    -10617.63    12745.544 
     186    1315.6211   -11025.718            0    -10617.75    12745.544 
     187    1315.6211    -11025.85            0   -10617.882    12745.544 
     188    1315.6211   -11026.002            0   -10618.034    12745.544 
     189    1315.6211   -11026.136            0   -10618.168    12745.544 
     190    1315.6211   -11026.289            0   -10618.321    12745.544 
     191    1315.6211   -11026.412            0   -10618.444    12745.544 
     192    1315.6211   -11026.554            0   -10618.586    12745.544 
     193    1315.6211   -11026.688            0    -10618.72    12745.544 
     194    1315.6211   -11026.797            0   -10618.829    12745.544 
     195    1315.6211   -11026.916            0   -10618.948    12745.544 
     196    1315.6211   -11026.989            0   -10619.022    12745.544 
     197    1315.6211   -11027.074            0   -10619.107    12745.544 
     198    1315.6211   -11027.139            0   -10619.171    12745.544 
     199    1315.6211   -11027.183            0   -10619.215    12745.544 
     200    1315.6211   -11027.241            0   -10619.274    12745.544 
     201    1315.6211   -11027.313            0   -10619.346    12745.544 
     202    1315.6211   -11027.363            0   -10619.396    12745.544 
     203    1315.6211   -11027.416            0   -10619.448    12745.544 
     204    1315.6211   -11027.468            0     -10619.5    12745.544 
     205    1315.6211   -11027.543            0   -10619.575    12745.544 
     206    1315.6211   -11027.575            0   -10619.608    12745.544 
     207    1315.6211   -11027.633            0   -10619.665    12745.544 
     208    1315.6211   -11027.708            0    -10619.74    12745.544 
     209    1315.6211   -11027.778            0   -10619.811    12745.544 
     210    1315.6211   -11027.838            0    -10619.87    12745.544 
     211    1315.6211   -11027.932            0   -10619.964    12745.544 
     212    1315.6211   -11028.002            0   -10620.034    12745.544 
     213    1315.6211   -11028.067            0     -10620.1    12745.544 
     214    1315.6211   -11028.125            0   -10620.157    12745.544 
     215    1315.6211    -11028.19            0   -10620.223    12745.544 
     216    1315.6211   -11028.248            0    -10620.28    12745.544 
     217    1315.6211   -11028.322            0   -10620.355    12745.544 
     218    1315.6211   -11028.403            0   -10620.436    12745.544 
     219    1315.6211   -11028.457            0   -10620.489    12745.544 
     220    1315.6211   -11028.512            0   -10620.544    12745.544 
     221    1315.6211   -11028.564            0   -10620.597    12745.544 
     222    1315.6211   -11028.627            0   -10620.659    12745.544 
     223    1315.6211   -11028.669            0   -10620.701    12745.544 
     224    1315.6211   -11028.699            0   -10620.732    12745.544 
     225    1315.6211   -11028.777            0    -10620.81    12745.544 
     226    1315.6211   -11028.851            0   -10620.883    12745.544 
     227    1315.6211   -11028.925            0   -10620.957    12745.544 
     228    1315.6211   -11028.992            0   -10621.025    12745.544 
     229    1315.6211   -11029.046            0   -10621.078    12745.544 
     230    1315.6211   -11029.092            0   -10621.124    12745.544 
     231    1315.6211    -11029.12            0   -10621.152    12745.544 
     232    1315.6211   -11029.151            0   -10621.184    12745.544 
     233    1315.6211   -11029.174            0   -10621.206    12745.544 
     234    1315.6211   -11029.203            0   -10621.235    12745.544 
     235    1315.6211   -11029.256            0   -10621.288    12745.544 
     236    1315.6211   -11029.257            0   -10621.289    12745.544 
     237    1315.6211   -11029.256            0   -10621.288    12745.544 
Loop time of 85.8186 on 1 procs for 237 steps with 2400 atoms

98.2% CPU use with 1 MPI tasks x 1 OpenMP threads

Minimization stats:
  Stopping criterion = linesearch alpha is zero
  Energy initial, next-to-last, final = 
       -10557.04296875  -11029.2568359375   -11029.255859375
  Force two-norm initial, final = 59.470933 0.53021440
  Force max component initial, final = 3.7791686 0.17499611
  Final line search alpha, max atom move = 3.4060073e-08 5.9603802e-09
  Iterations, force evaluations = 237 423

MPI task timing breakdown:
Section |  min time  |  avg time  |  max time  |%varavg| %total
---------------------------------------------------------------
Pair    | 85.581     | 85.581     | 85.581     |   0.0 | 99.72
Neigh   | 0.16888    | 0.16888    | 0.16888    |   0.0 |  0.20
Comm    | 0.023827   | 0.023827   | 0.023827   |   0.0 |  0.03
Output  | 0.0074445  | 0.0074445  | 0.0074445  |   0.0 |  0.01
Modify  | 0          | 0          | 0          |   0.0 |  0.00
Other   |            | 0.03734    |            |       |  0.04

Nlocal:        2400.00 ave        2400 max        2400 min
Histogram: 1 0 0 0 0 0 0 0 0 0
Nghost:        4885.00 ave        4885 max        4885 min
Histogram: 1 0 0 0 0 0 0 0 0 0
Neighs:         0.00000 ave           0 max           0 min
Histogram: 1 0 0 0 0 0 0 0 0 0
FullNghs:      240336.0 ave      240336 max      240336 min
Histogram: 1 0 0 0 0 0 0 0 0 0

Total # of neighbors = 240336
Ave neighs/atom = 100.14000
Neighbor list builds = 12
Dangerous builds = 0

timestep .001 # fetmoseconds
variable Tsim equal 1300 # Kelvin
velocity all create ${Tsim} 12335
velocity all create 1300 12335
# dump            dump1 all custom 1 traj_${Tsim}.lammpstrj id type xu yu zu
# dump_modify     dump1 sort id


#-------------------------------------------
# 1st equilibration run
#fix 1 all nve
fix 1 all nvt temp ${Tsim} ${Tsim} $(100.0*dt)
fix 1 all nvt temp 1300 ${Tsim} $(100.0*dt)
fix 1 all nvt temp 1300 1300 $(100.0*dt)
fix 1 all nvt temp 1300 1300 0.10000000000000000555
thermo          100
reset_timestep 0

run 50000
Per MPI rank memory allocation (min/avg/max) = 3.984 | 3.984 | 3.984 Mbytes
Step Temp E_pair E_mol TotEng Press 
       0         1300   -11029.256            0   -10626.132    12594.209 
     100    649.51949   -10798.144            0   -10596.731    6292.4494 
     200    762.14288   -10780.644            0   -10544.307    7383.5282 
     300    851.20381   -10745.322            0   -10481.368    8246.3374 
     400     964.5205    -10710.54            0   -10411.447    9344.1329 
     500    1050.6546   -10664.272            0    -10338.47    10178.587 
     600    1179.3617   -10632.157            0   -10266.443    11425.483 
     700    1226.5548   -10582.821            0   -10202.473    11882.683 
     800    1318.8152   -10560.491            0   -10151.533    12776.487 
     900    1358.5668   -10544.673            0   -10123.388    13161.596 
    1000    1323.4893   -10539.244            0   -10128.837     12821.77 
    1100    1314.4928   -10563.495            0   -10155.877    12734.613 
    1200    1277.8767   -10576.957            0   -10180.694    12379.881 
    1300    1269.5604   -10579.482            0   -10185.798    12299.314 
    1400    1287.0558   -10566.936            0   -10167.826    12468.807 
    1500    1306.2964   -10547.881            0   -10142.805    12655.207 
    1600    1343.6196   -10551.567            0   -10134.918    13016.789 
    1700    1309.4844   -10555.084            0   -10149.019    12686.092 
    1800     1301.515   -10568.121            0   -10164.528    12608.886 
    1900    1287.1029   -10570.674            0    -10171.55    12469.263 
    2000    1269.0903   -10560.911            0   -10167.372     12294.76 
    2100    1322.0201   -10563.982            0    -10154.03    12807.536 
    2200    1321.4488   -10556.115            0    -10146.34    12802.001 
    2300    1317.5592    -10558.32            0   -10149.752     12764.32 
    2400    1289.8173   -10555.505            0   -10155.539     12495.56 
    2500    1290.2774   -10555.165            0   -10155.056    12500.017 
    2600     1301.677   -10557.102            0   -10153.458    12610.456 
    2700    1319.4544   -10566.102            0   -10156.945    12782.681 
    2800    1312.5008   -10569.051            0   -10162.051    12715.315 
    2900    1291.3756   -10561.325            0   -10160.876    12510.657 
    3000    1285.7868   -10558.025            0   -10159.309    12456.513 
    3100    1306.6508   -10565.289            0   -10160.103     12658.64 
    3200     1299.108   -10556.163            0   -10153.316    12585.567 
    3300    1309.7207   -10550.075            0   -10143.937    12688.382 
    3400    1308.1565   -10552.719            0   -10147.066    12673.228 
    3500    1280.9395   -10554.348            0   -10157.135    12409.554 
    3600    1283.0565   -10563.394            0   -10165.524    12430.063 
    3700    1275.9344   -10562.388            0   -10166.727    12361.065 
    3800    1292.5639   -10562.273            0   -10161.456    12522.169 
    3900    1324.7647   -10561.183            0    -10150.38    12834.126 
    4000    1305.3376   -10550.721            0   -10145.942    12645.919 
    4100    1295.3411   -10550.617            0   -10148.938    12549.074 
    4200    1308.2827   -10562.505            0   -10156.813     12674.45 
    4300    1283.7205   -10560.349            0   -10162.273    12436.496 
    4400    1296.6788   -10561.606            0   -10159.513    12562.034 
    4500    1310.6145   -10561.846            0   -10155.431    12697.041 
    4600    1319.5198   -10563.095            0   -10153.918    12783.314 
    4700    1309.3901   -10565.483            0   -10159.448    12685.179 
    4800    1299.8011   -10564.229            0   -10161.167    12592.282 
    4900    1286.9389   -10557.609            0   -10158.536    12467.675 
    5000    1301.8931   -10557.565            0   -10153.855    12612.549 
    5100    1320.0249   -10557.292            0   -10147.959    12788.207 
    5200    1345.9651   -10563.593            0   -10146.216    13039.512 
    5300    1324.3894   -10563.598            0   -10152.911     12830.49 
    5400    1289.2337   -10564.356            0   -10164.571    12489.906 
    5500    1306.9043    -10574.42            0   -10169.155    12661.097 
    5600     1280.538   -10565.423            0   -10168.334    12405.664 
    5700    1312.2648   -10567.548            0   -10160.621    12713.028 
    5800    1310.9646   -10557.861            0   -10151.338    12700.432 
    5900    1327.2598   -10558.247            0    -10146.67    12858.298 
    6000    1305.9239   -10556.794            0   -10151.833    12651.599 
    6100    1276.7433   -10563.839            0   -10167.927    12368.902 
    6200    1282.9722   -10571.634            0    -10173.79    12429.246 
    6300    1308.7581    -10575.26            0    -10169.42    12679.056 
    6400    1291.4267   -10560.405            0    -10159.94    12511.152 
    6500    1324.9495   -10564.951            0   -10154.091    12835.916 
    6600    1313.6011   -10562.684            0   -10155.342    12725.975 
    6700     1327.228   -10571.564            0   -10159.998    12857.989 
    6800    1262.2488   -10558.452            0   -10167.035    12228.481 
    6900    1305.9805    -10567.83            0   -10162.852    12652.147 
    7000    1319.1571    -10554.48            0   -10145.416      12779.8 
    7100    1327.9857   -10553.197            0   -10141.395     12865.33 
    7200    1300.9824   -10556.098            0   -10152.669    12603.726 
    7300    1286.9165   -10559.933            0   -10160.866    12467.458 
    7400    1292.0476   -10565.609            0   -10164.952    12517.167 
    7500    1290.1302   -10564.689            0   -10164.626    12498.592 
    7600    1302.3519   -10563.796            0   -10159.943    12616.994 
    7700     1321.041   -10566.554            0   -10156.905    12798.051 
    7800    1303.3476   -10561.681            0   -10157.519     12626.64 
    7900    1321.7802   -10567.513            0   -10157.635    12805.212 
    8000    1284.5498    -10560.67            0   -10162.337     12444.53 
    8100    1300.2785   -10575.085            0   -10171.875    12596.907 
    8200    1271.5143   -10567.906            0   -10173.616    12318.244 
    8300    1266.1154   -10549.367            0   -10156.751     12265.94 
    8400    1322.9044   -10557.727            0     -10147.5    12816.104 
    8500    1315.6617   -10559.073            0   -10151.093    12745.937 
    8600    1304.1986   -10562.911            0   -10158.486    12634.885 
    8700    1289.1451   -10567.734            0   -10167.977    12489.048 
    8800    1317.0947   -10570.712            0   -10162.287     12759.82 
    8900    1334.0372    -10558.12            0   -10144.442    12923.956 
    9000    1329.6304   -10553.975            0   -10141.663    12881.264 
    9100    1313.1215   -10556.269            0   -10149.076    12721.328 
    9200    1300.2362   -10563.561            0   -10160.364    12596.497 
    9300    1301.6358   -10569.211            0    -10165.58    12610.057 
    9400    1308.4795   -10571.655            0   -10165.902    12676.357 
    9500     1285.621   -10561.344            0   -10162.679    12454.907 
    9600    1318.4722   -10558.148            0   -10149.297    12773.164 
    9700     1330.915   -10556.889            0   -10144.178    12893.709 
    9800    1302.5186    -10551.71            0   -10147.805    12618.608 
    9900    1305.8079   -10556.495            0    -10151.57    12650.475 
   10000    1285.4539   -10552.302            0   -10153.689    12453.288 
   10100    1294.6265   -10556.062            0   -10154.604    12542.151 
   10200    1273.1554   -10556.432            0   -10161.632    12334.143 
   10300    1263.3633   -10553.422            0   -10161.659    12239.278 
   10400    1300.5234   -10553.735            0   -10150.449     12599.28 
   10500    1276.1886    -10542.14            0     -10146.4    12363.528 
   10600    1286.5702   -10549.283            0   -10150.324    12464.103 
   10700    1271.3405   -10558.062            0   -10163.826     12316.56 
   10800    1310.9233   -10572.282            0   -10165.771    12700.033 
   10900    1311.1206   -10559.866            0   -10153.294    12701.944 
   11000    1354.6304   -10563.759            0   -10143.695    13123.461 
   11100    1311.0595   -10555.367            0   -10148.814    12701.352 
   11200    1293.7948   -10557.495            0   -10156.296    12534.094 
   11300    1311.8712   -10567.734            0    -10160.93    12709.216 
   11400    1286.3086   -10555.341            0   -10156.463    12461.569 
   11500    1326.7218   -10549.706            0   -10138.296    12853.086 
   11600    1328.2859   -10546.582            0   -10134.687    12868.239 
   11700    1325.4748   -10557.221            0   -10146.197    12841.005 
   11800    1280.1748   -10558.993            0   -10162.017    12402.146 
   11900    1278.2373   -10562.447            0   -10166.072    12383.375 
   12000    1253.5931   -10550.524            0   -10161.791    12144.626 
   12100    1303.7241   -10550.506            0   -10146.227    12630.288 
   12200    1352.1349   -10559.319            0   -10140.029    13099.285 
   12300    1300.7437   -10551.416            0   -10148.062    12601.413 
   12400    1300.3934    -10557.47            0   -10154.224     12598.02 
   12500    1283.2807   -10555.656            0   -10157.717    12432.235 
   12600    1307.2848   -10558.103            0    -10152.72    12664.783 
   12700    1315.4892    -10561.61            0   -10153.684    12744.266 
   12800    1298.1525   -10558.723            0   -10156.172    12576.311 
   12900    1320.1893    -10570.19            0   -10160.806      12789.8 
   13000    1243.6432   -10560.556            0   -10174.908    12048.233 
   13100    1280.2936   -10573.164            0   -10176.151    12403.296 
   13200    1322.4929   -10565.798            0   -10155.699    12812.117 
   13300    1333.5975   -10564.803            0   -10151.261    12919.696 
   13400     1288.861   -10557.168            0   -10157.499    12486.296 
   13500    1280.3678   -10559.542            0   -10162.506    12404.015 
   13600    1313.5787   -10565.773            0   -10158.439    12725.757 
   13700    1317.3349   -10555.238            0   -10146.739    12762.146 
   13800    1334.3918   -10554.062            0   -10140.273    12927.392 
   13900    1318.6144   -10549.312            0   -10140.417    12774.542 
   14000    1300.6728   -10561.514            0   -10158.181    12600.727 
   14100    1287.8148   -10566.677            0   -10167.332    12476.161 
   14200    1297.1087   -10562.729            0   -10160.501    12566.199 
   14300    1316.4184   -10557.651            0   -10149.436    12753.268 
   14400    1319.8427   -10561.723            0   -10152.446    12786.442 
   14500    1271.6489   -10552.476            0   -10158.144    12319.548 
   14600    1316.7382   -10562.772            0   -10154.458    12756.366 
   14700    1305.4159   -10555.422            0   -10150.619    12646.678 
   14800    1279.8678    -10546.52            0   -10149.639    12399.171 
   14900     1307.004   -10561.312            0   -10156.017    12662.063 
   15000     1277.792    -10567.84            0   -10171.603    12379.061 
   15100    1290.8407    -10571.41            0   -10171.127    12505.475 
   15200    1297.6093   -10560.024            0   -10157.642    12571.049 
   15300     1335.115   -10562.575            0   -10148.563    12934.398 
   15400    1326.7502   -10562.764            0   -10151.345    12853.361 
   15500    1288.6149    -10558.62            0   -10159.027    12483.912 
   15600     1286.059   -10564.223            0   -10165.422    12459.151 
   15700    1281.8568   -10571.947            0    -10174.45     12418.44 
   15800    1242.0515   -10568.799            0   -10183.645    12032.812 
   15900    1293.4994   -10575.318            0   -10174.211    12531.232 
   16000    1288.4192    -10559.44            0   -10159.908    12482.015 
   16100    1348.4319   -10568.431            0   -10150.289     13063.41 
   16200    1309.7848   -10557.312            0   -10151.154    12689.002 
   16300    1298.9152   -10566.456            0   -10163.669      12583.7 
   16400     1285.772   -10570.594            0   -10171.882     12456.37 
   16500    1258.3545   -10556.137            0   -10165.927    12190.753 
   16600     1303.724   -10559.685            0   -10155.406    12630.286 
   16700    1306.5291   -10555.333            0   -10150.185    12657.462 
   16800    1280.0454   -10543.589            0   -10146.653    12400.892 
   16900    1294.5711   -10541.123            0   -10139.683    12541.615 
   17000    1326.9346   -10544.123            0   -10132.647    12855.147 
   17100    1334.6185   -10559.757            0   -10145.898    12929.588 
   17200    1297.9435     -10559.1            0   -10156.614    12574.286 
   17300    1315.3431    -10569.21            0   -10161.329     12742.85 
   17400    1263.6512   -10560.645            0   -10168.792    12242.068 
   17500    1267.3455   -10560.102            0   -10167.104    12277.857 
   17600    1295.0356    -10549.37            0   -10147.786    12546.115 
   17700    1331.5884   -10558.425            0   -10145.506    12900.232 
   17800    1282.8515   -10552.253            0   -10154.447    12428.076 
   17900    1269.0117   -10557.576            0   -10164.062    12293.999 
   18000    1287.6888   -10569.972            0   -10170.666     12474.94 
   18100    1288.2311    -10570.34            0   -10170.866    12480.194 
   18200    1329.5049   -10566.696            0   -10154.423    12880.048 
   18300    1320.5384     -10556.5            0   -10147.008    12793.182 
   18400    1335.8538   -10560.295            0   -10146.053    12941.556 
   18500    1265.8194   -10554.754            0    -10162.23    12263.073 
   18600    1294.7462   -10566.931            0   -10165.436    12543.311 
   18700    1279.3922    -10556.58            0   -10159.847    12394.563 
   18800    1298.4986   -10553.441            0   -10150.783    12579.663 
   18900    1299.4343   -10554.268            0   -10151.319    12588.728 
   19000    1281.6592   -10553.555            0   -10156.118    12416.526 
   19100     1271.365   -10556.538            0   -10162.294    12316.797 
   19200    1300.0102   -10564.803            0   -10161.676    12594.308 
   19300    1313.0281   -10568.349            0   -10161.185    12720.423 
   19400    1293.5256   -10568.838            0   -10167.722    12531.486 
   19500     1296.469   -10570.849            0    -10168.82    12560.001 
   19600    1283.1257   -10555.887            0   -10157.996    12430.733 
   19700    1301.0867   -10550.847            0   -10147.386    12604.737 
   19800    1332.3519   -10564.162            0   -10151.006    12907.629 
   19900    1273.7749   -10558.194            0   -10163.203    12340.144 
   20000    1302.5279    -10570.87            0   -10166.963    12618.698 
   20100    1293.1953   -10566.211            0   -10165.197    12528.286 
   20200    1280.8813   -10554.775            0    -10157.58     12408.99 
   20300    1305.7482   -10552.746            0    -10147.84    12649.897 
   20400    1325.7549   -10564.194            0   -10153.084    12843.718 
   20500    1293.9764   -10559.077            0   -10157.821    12535.853 
   20600    1320.1946   -10567.964            0   -10158.578    12789.852 
   20700    1276.8723   -10554.451            0   -10158.499    12370.152 
   20800    1333.3488   -10556.532            0   -10143.067    12917.287 
   20900    1332.0344   -10552.993            0   -10139.936    12904.554 
   21000    1319.2203   -10560.223            0   -10151.139    12780.412 
   21100    1263.9195   -10546.197            0   -10154.262    12244.666 
   21200     1315.343   -10557.603            0   -10149.721     12742.85 
   21300    1292.3231   -10554.319            0   -10153.576    12519.836 
   21400    1292.8261   -10568.909            0    -10168.01    12524.709 
   21500    1267.5213    -10569.17            0   -10176.118     12279.56 
   21600    1264.2901   -10561.955            0   -10169.905    12248.257 
   21700    1290.8403   -10564.764            0    -10164.48    12505.471 
   21800    1311.9311    -10566.28            0   -10159.457    12709.795 
   21900    1317.1287   -10564.717            0   -10156.282    12760.149 
   22000    1254.1076   -10554.166            0   -10165.273     12149.61 
   22100    1257.6729   -10565.346            0   -10175.348     12184.15 
   22200     1288.437     -10566.4            0   -10166.862    12482.188 
   22300    1310.6022   -10558.107            0   -10151.696    12696.922 
   22400    1302.7454   -10555.997            0   -10152.022    12620.806 
   22500    1274.7156   -10553.302            0   -10158.019    12349.257 
   22600    1281.7117   -10557.296            0   -10159.843    12417.034 
   22700    1279.4726   -10552.366            0   -10155.608    12395.343 
   22800     1318.846   -10555.925            0   -10146.957    12776.787 
   22900     1303.572   -10548.824            0   -10144.593    12628.814 
   23000    1280.5661   -10558.496            0   -10161.399    12405.936 
   23100    1302.8427   -10569.303            0   -10165.298    12621.748 
   23200    1281.0327   -10557.227            0   -10159.985    12410.457 
   23300    1287.0202   -10546.868            0    -10147.77    12468.462 
   23400    1299.7605   -10549.307            0   -10146.257    12591.888 
   23500    1311.4804   -10558.089            0   -10151.405    12705.429 
   23600    1268.5123   -10553.562            0   -10160.202     12289.16 
   23700    1281.7531    -10555.19            0   -10157.725    12417.436 
   23800    1311.5462   -10560.919            0   -10154.215    12706.067 
   23900     1300.945   -10557.675            0   -10154.258    12603.364 
   24000     1280.324    -10551.14            0   -10154.117    12403.591 
   24100     1290.136   -10549.816            0   -10149.752    12498.648 
   24200    1311.1723   -10547.391            0   -10140.803    12702.444 
   24300    1335.1422   -10551.195            0   -10137.174    12934.662 
   24400    1309.0937   -10557.931            0   -10151.987    12682.307 
   24500    1290.6949   -10562.305            0   -10162.067    12504.063 
   24600     1268.038   -10553.968            0   -10160.755    12284.566 
   24700    1302.9924   -10554.227            0   -10150.175    12623.199 
   24800    1292.1138   -10546.613            0   -10145.935    12517.809 
   24900    1312.7628   -10553.074            0   -10145.993    12717.853 
   25000    1314.2343   -10558.723            0   -10151.185    12732.109 
   25100    1303.7624   -10560.937            0   -10156.646    12630.659 
   25200     1282.721   -10558.961            0   -10161.195    12426.812 
   25300    1283.6615   -10560.674            0   -10162.617    12435.924 
   25400    1300.3536   -10562.292            0   -10159.059    12597.634 
   25500    1320.9273   -10562.603            0   -10152.989    12796.949 
   25600     1323.383   -10558.062            0   -10147.687     12820.74 
   25700    1291.3603   -10555.543            0   -10155.098    12510.508 
   25800    1279.9172   -10564.864            0   -10167.968    12399.649 
   25900    1296.1848   -10569.315            0   -10167.375    12557.248 
   26000    1306.4189   -10563.488            0   -10158.374    12656.394 
   26100    1348.1065    -10555.59            0   -10137.549    13060.258 
   26200    1319.0201   -10544.929            0   -10135.907    12778.473 
   26300    1315.6256    -10552.64            0   -10144.671    12745.587 
   26400    1294.1709   -10556.751            0   -10155.435    12537.738 
   26500    1308.5289   -10567.482            0   -10161.714    12676.836 
   26600    1326.3222   -10575.144            0   -10163.858    12849.215 
   26700    1291.2446   -10563.471            0   -10163.062    12509.388 
   26800    1278.0732   -10554.378            0   -10158.054    12381.785 
   26900    1332.8083   -10561.309            0   -10148.011    12912.051 
   27000    1306.5376   -10552.234            0   -10147.083    12657.544 
   27100     1296.452    -10559.66            0   -10157.637    12559.836 
   27200    1273.4908   -10564.905            0   -10170.002    12337.392 
   27300    1253.6266   -10557.667            0   -10168.924    12144.951 
   27400    1291.3087    -10563.23            0   -10162.802    12510.009 
   27500    1286.8277   -10559.058            0   -10160.019    12466.597 
   27600    1287.4387   -10555.233            0   -10156.005    12472.516 
   27700    1309.7347   -10556.322            0    -10150.18    12688.517 
   27800    1339.0241   -10569.634            0   -10154.409    12972.268 
   27900    1288.1957    -10571.18            0   -10171.717    12479.851 
   28000    1299.4917     -10573.3            0   -10170.334    12589.285 
   28100     1303.043   -10569.068            0   -10165.001    12623.689 
   28200    1290.8925   -10553.736            0   -10153.437    12505.977 
   28300     1309.317   -10556.658            0   -10150.645    12684.471 
   28400     1279.014   -10553.434            0   -10156.818      12390.9 
   28500    1294.2866   -10573.955            0   -10172.603    12538.858 
   28600    1271.6447   -10572.567            0   -10178.237    12319.507 
   28700    1260.0835   -10556.048            0   -10165.302    12207.504 
   28800    1327.6594   -10570.978            0   -10159.277    12862.169 
   28900    1283.6536     -10560.6            0   -10162.545    12435.847 
   29000    1301.4714   -10569.464            0   -10165.884    12608.464 
   29100    1303.8329   -10567.229            0   -10162.916    12631.342 
   29200    1326.4054   -10561.372            0    -10150.06     12850.02 
   29300    1335.3833   -10561.143            0   -10147.047    12936.997 
   29400    1317.0113   -10572.188            0    -10163.79    12759.012 
   29500    1294.6143   -10573.737            0   -10172.284    12542.033 
   29600    1291.6856   -10569.062            0   -10168.517     12513.66 
   29700    1313.2629   -10565.806            0   -10158.569    12722.698 
   29800    1317.0659   -10558.497            0   -10150.081    12759.541 
   29900     1305.651   -10557.052            0   -10152.176    12648.955 
   30000    1299.5039   -10558.785            0   -10155.815    12589.403 
   30100    1284.0644   -10571.352            0   -10173.169    12439.827 
   30200    1267.5943   -10574.461            0   -10181.386    12280.267 
   30300    1293.0255   -10571.715            0   -10170.754    12526.641 
   30400      1304.52   -10564.942            0   -10160.417    12637.998 
   30500    1310.5013    -10562.72            0    -10156.34    12695.944 
   30600    1290.5334   -10558.082            0   -10157.894    12502.497 
   30700    1294.7046   -10565.705            0   -10164.224    12542.908 
   30800    1268.5439   -10568.959            0    -10175.59    12289.466 
   30900    1276.3044    -10566.33            0   -10170.554     12364.65 
   31000    1323.3402   -10565.482            0   -10155.121    12820.325 
   31100    1291.6717   -10553.101            0    -10152.56    12513.525 
   31200    1324.5729   -10564.784            0   -10154.041    12832.268 
   31300    1264.2743   -10560.634            0   -10168.589    12248.104 
   31400    1261.5604   -10561.183            0   -10169.979    12221.812 
   31500    1318.0583    -10562.32            0   -10153.597    12769.155 
   31600    1318.4193    -10560.47            0   -10151.634    12772.652 
   31700    1312.7354   -10564.668            0   -10157.595    12717.588 
   31800    1281.1437   -10561.056            0   -10163.779    12411.532 
   31900     1266.386   -10563.966            0   -10171.266    12268.562 
   32000    1269.7453   -10565.869            0   -10172.127    12301.106 
   32100    1282.0958   -10550.215            0   -10152.643    12420.756 
   32200    1320.6894    -10553.66            0   -10144.121    12794.645 
   32300    1313.9104   -10552.003            0   -10144.566    12728.971 
   32400    1282.0814   -10550.183            0   -10152.615    12420.616 
   32500    1285.2969   -10562.976            0   -10164.411    12451.768 
   32600    1290.6883   -10573.504            0   -10173.268    12503.998 
   32700    1254.0064   -10565.962            0   -10177.101     12148.63 
   32800    1312.3051   -10569.654            0   -10162.715    12713.419 
   32900    1297.4388   -10556.049            0   -10153.719    12569.396 
   33000    1307.9323    -10553.13            0   -10147.546    12671.056 
   33100    1319.3355   -10550.792            0   -10141.673    12781.528 
   33200     1332.986   -10558.165            0   -10144.813    12913.773 
   33300    1271.9068   -10558.038            0   -10163.626    12322.046 
   33400     1290.634   -10566.282            0   -10166.063    12503.473 
   33500    1295.1847   -10556.734            0   -10155.104    12547.559 
   33600    1312.4631   -10552.758            0   -10145.769     12714.95 
   33700    1271.4062   -10543.954            0   -10149.697    12317.196 
   33800    1267.8477   -10548.406            0   -10155.253    12282.723 
   33900    1290.7839   -10554.727            0   -10154.461    12504.925 
   34000    1312.7511   -10562.745            0   -10155.667     12717.74 
   34100    1285.3599   -10553.568            0   -10154.985    12452.377 
   34200     1306.269   -10558.163            0   -10153.095    12654.942 
   34300    1297.3981    -10553.53            0   -10151.214    12569.002 
   34400    1338.8489   -10559.283            0   -10144.113    12970.571 
   34500    1330.2309   -10561.163            0   -10148.665    12887.082 
   34600    1290.7391    -10563.78            0   -10163.528    12504.491 
   34700    1260.8301   -10554.717            0    -10163.74    12214.737 
   34800    1300.9134   -10558.188            0   -10154.782    12603.058 
   34900    1325.8007   -10561.406            0   -10150.282    12844.163 
   35000    1292.5952     -10563.6            0   -10162.772    12522.472 
   35100    1266.1421   -10565.246            0   -10172.622    12266.199 
   35200    1316.0398   -10567.072            0   -10158.975      12749.6 
   35300    1299.4469   -10556.432            0    -10153.48    12588.851 
   35400    1292.9917   -10557.604            0   -10156.654    12526.314 
   35500    1280.0854   -10559.917            0   -10162.969    12401.279 
   35600    1293.8286   -10575.738            0   -10174.528    12534.422 
   35700    1276.6202   -10573.567            0   -10177.694    12367.709 
   35800    1311.7563   -10565.479            0   -10158.709    12708.103 
   35900    1318.6079   -10564.487            0   -10155.593     12774.48 
   36000    1291.9401   -10558.929            0   -10158.304    12516.126 
   36100     1274.534   -10556.107            0   -10160.881    12347.498 
   36200    1270.0026   -10555.571            0    -10161.75    12303.599 
   36300    1303.6478   -10558.774            0    -10154.52    12629.549 
   36400    1315.4774   -10556.278            0   -10148.355    12744.152 
   36500     1306.538   -10554.545            0   -10149.394    12657.548 
   36600    1290.4875   -10558.942            0   -10158.769    12502.053 
   36700    1270.8557   -10562.917            0   -10168.831    12311.863 
   36800    1286.3031   -10569.237            0   -10170.361    12461.516 
   36900    1322.4808   -10566.016            0   -10155.921        12812 
   37000    1337.0462   -10560.928            0   -10146.316    12953.107 
   37100    1308.5742    -10558.43            0   -10152.647    12677.275 
   37200    1277.6326   -10558.676            0   -10162.488    12377.517 
   37300    1293.3448   -10566.167            0   -10165.107    12529.735 
   37400    1307.4204   -10572.876            0   -10167.451    12666.096 
   37500    1303.6543   -10567.727            0    -10163.47    12629.611 
   37600    1312.5185   -10560.072            0   -10153.067    12715.487 
   37700    1330.5838   -10562.994            0   -10150.387      12890.5 
   37800    1258.0088   -10550.042            0    -10159.94    12187.404 
   37900    1310.5774   -10570.171            0   -10163.767    12696.681 
   38000    1269.7412   -10564.691            0   -10170.951    12301.066 
   38100    1257.2502   -10567.383            0   -10177.516    12180.055 
   38200    1283.3497   -10562.339            0   -10164.378    12432.904 
   38300    1317.7099   -10560.642            0   -10152.026     12765.78 
   38400    1326.5315   -10558.057            0   -10146.706    12851.243 
   38500     1289.553   -10549.408            0   -10149.524        12493 
   38600    1289.8353   -10561.473            0   -10161.501    12495.734 
   38700    1263.5836   -10563.466            0   -10171.635    12241.413 
   38800    1288.1224   -10567.103            0   -10167.662     12479.14 
   38900    1307.8162    -10563.57            0   -10158.023    12669.931 
   39000    1294.6401   -10555.465            0   -10154.003    12542.283 
   39100    1289.7909   -10555.126            0   -10155.168    12495.304 
   39200    1304.0906   -10564.856            0   -10160.464    12633.838 
   39300    1300.1959   -10572.749            0   -10169.565    12596.107 
   39400    1239.4019   -10563.764            0   -10179.431    12007.143 
   39500    1288.3431   -10567.615            0   -10168.106    12481.278 
   39600    1307.8881   -10560.296            0   -10154.726    12670.628 
   39700    1277.0342   -10554.191            0   -10158.189    12371.719 
   39800    1290.4357   -10564.218            0    -10164.06    12501.552 
   39900     1265.556   -10563.087            0   -10170.644     12260.52 
   40000    1284.6592   -10570.645            0   -10172.278     12445.59 
   40100     1297.909   -10563.754            0   -10161.279    12573.951 
   40200     1335.209   -10563.358            0   -10149.317    12935.309 
   40300    1276.9474   -10548.292            0   -10152.317    12370.879 
   40400    1289.6107   -10559.546            0   -10159.644    12493.559 
   40500    1258.9323   -10564.729            0    -10174.34    12196.351 
   40600    1262.7333   -10565.414            0   -10173.847    12233.174 
   40700    1289.6886    -10555.12            0   -10155.194    12494.314 
   40800    1285.0892   -10553.254            0   -10154.754    12449.755 
   40900    1277.2707   -10552.011            0   -10155.935    12374.011 
   41000    1283.0801   -10556.646            0    -10158.77    12430.291 
   41100    1316.0468    -10568.06            0    -10159.96    12749.668 
   41200    1274.4395   -10559.272            0   -10164.075    12346.583 
   41300    1282.7716   -10560.688            0   -10162.906    12427.303 
   41400    1290.5069   -10556.594            0   -10156.414    12502.241 
   41500      1322.86   -10557.507            0   -10147.294    12815.673 
   41600    1294.8066    -10548.36            0   -10146.847    12543.896 
   41700    1306.1875   -10562.613            0   -10157.571    12654.152 
   41800    1266.4322     -10561.4            0   -10168.686    12269.009 
   41900    1283.9535   -10561.969            0   -10163.821    12438.753 
   42000      1294.84   -10554.375            0   -10152.851     12544.22 
   42100    1314.1537   -10552.216            0   -10144.703    12731.328 
   42200    1324.1349   -10541.382            0   -10130.774    12828.024 
   42300    1318.1568   -10540.297            0   -10131.543    12770.109 
   42400    1331.3834   -10561.684            0   -10148.828    12898.247 
   42500    1304.9931   -10560.049            0   -10155.377    12642.582 
   42600     1296.862   -10563.497            0   -10161.347    12563.809 
   42700    1244.1132   -10557.056            0   -10171.262    12052.786 
   42800    1286.1054   -10574.197            0   -10175.382      12459.6 
   42900    1280.7972   -10562.762            0   -10165.593    12408.175 
   43000    1300.2428   -10554.573            0   -10151.374    12596.561 
   43100    1296.6472   -10550.636            0   -10148.552    12561.728 
   43200    1316.2868   -10563.103            0   -10154.928    12751.993 
   43300    1273.3876   -10564.776            0   -10169.905    12336.392 
   43400    1264.9725   -10564.541            0   -10172.279    12254.867 
   43500    1275.7601    -10559.45            0   -10163.843    12359.377 
   43600    1296.2537   -10558.616            0   -10156.654    12557.915 
   43700     1297.409   -10556.334            0   -10154.014    12569.108 
   43800    1271.1158   -10556.266            0   -10162.099    12314.383 
   43900    1281.5152   -10570.193            0   -10172.802    12415.131 
   44000    1293.4899   -10579.584            0   -10178.479     12531.14 
   44100     1280.675   -10571.912            0   -10174.781    12406.992 
   44200    1281.6353    -10558.45            0   -10161.021    12416.295 
   44300    1324.9032    -10559.77            0   -10148.924    12835.468 
   44400    1302.3145   -10550.079            0   -10146.238    12616.631 
   44500    1318.5403   -10561.699            0   -10152.826    12773.824 
   44600    1301.0426   -10571.779            0   -10168.332    12604.309 
   44700    1259.1313   -10559.171            0    -10168.72    12198.279 
   44800    1275.4842   -10556.134            0   -10160.612    12356.704 
   44900    1306.8344   -10558.722            0   -10153.479    12660.419 
   45000    1313.4966   -10564.578            0   -10157.269    12724.962 
   45100    1277.4247   -10559.396            0   -10163.273    12375.503 
   45200    1294.7779   -10566.379            0   -10164.875    12543.618 
   45300     1296.766   -10563.343            0   -10161.222    12562.879 
   45400    1312.1685   -10548.697            0     -10141.8    12712.096 
   45500    1301.3267   -10543.182            0   -10139.647    12607.062 
   45600    1327.7969   -10564.872            0   -10153.129    12863.501 
   45700    1289.5275   -10560.606            0    -10160.73    12492.753 
   45800    1292.4432   -10557.173            0   -10156.393        12521 
   45900     1303.955    -10554.47            0    -10150.12    12632.525 
   46000    1312.7924   -10554.244            0   -10147.154     12718.14 
   46100    1267.3829   -10555.258            0   -10162.249    12278.219 
   46200    1280.0607    -10564.82            0    -10167.88     12401.04 
   46300    1313.9718   -10570.507            0   -10163.051    12729.566 
   46400    1336.0263   -10568.565            0    -10154.27    12943.226 
   46500     1332.755   -10561.164            0   -10147.883    12911.535 
   46600    1287.3275    -10555.41            0   -10156.216     12471.44 
   46700    1315.5189    -10573.24            0   -10165.304    12744.554 
   46800    1248.0545   -10561.371            0   -10174.356    12090.969 
   46900    1287.1809   -10571.123            0   -10171.975    12470.019 
   47000    1319.1563   -10559.764            0     -10150.7    12779.793 
   47100    1292.6326   -10553.576            0   -10152.737    12522.834 
   47200    1286.0939   -10558.219            0   -10159.407    12459.488 
   47300    1264.2508   -10551.589            0   -10159.551    12247.876 
   47400    1320.2719   -10557.974            0   -10148.564      12790.6 
   47500    1309.1249   -10543.771            0   -10137.817    12682.609 
   47600    1309.1786   -10549.822            0   -10143.852     12683.13 
   47700    1269.0965   -10547.297            0   -10153.756    12294.821 
   47800    1293.7071   -10556.316            0   -10155.144    12533.244 
   47900    1299.0571   -10560.357            0   -10157.526    12585.074 
   48000    1290.1341   -10563.209            0   -10163.145    12498.629 
   48100    1271.2619   -10569.211            0   -10174.999    12315.798 
   48200    1288.4446   -10581.104            0   -10181.563    12482.262 
   48300       1289.5   -10567.282            0   -10167.415    12492.486 
   48400    1295.1836   -10556.065            0   -10154.435    12547.548 
   48500    1300.1453   -10554.079            0    -10150.91    12595.617 
   48600     1303.546   -10558.369            0   -10154.146    12628.562 
   48700    1290.8158   -10563.901            0   -10163.626    12505.233 
   48800    1297.3111   -10573.835            0   -10171.545    12568.159 
   48900    1271.4169   -10565.712            0   -10171.452      12317.3 
   49000    1316.1789   -10564.609            0   -10156.469    12750.948 
   49100    1326.9928   -10558.025            0   -10146.531    12855.711 
   49200    1335.1225   -10558.999            0   -10144.984    12934.471 
   49300    1267.9144   -10547.641            0   -10154.467    12283.368 
   49400    1261.5521   -10562.414            0   -10171.213    12221.731 
   49500    1276.9909   -10566.896            0   -10170.907    12371.301 
   49600    1330.8422   -10577.672            0   -10164.984    12893.004 
   49700    1283.6944   -10560.455            0   -10162.388    12436.242 
   49800    1314.3282   -10564.023            0   -10156.457    12733.018 
   49900    1302.7532   -10555.502            0   -10151.525    12620.882 
   50000    1286.6691   -10550.312            0   -10151.322    12465.061 
Loop time of 9358.9 on 1 procs for 50000 steps with 2400 atoms

Performance: 0.462 ns/day, 51.994 hours/ns, 5.343 timesteps/s
98.4% CPU use with 1 MPI tasks x 1 OpenMP threads

MPI task timing breakdown:
Section |  min time  |  avg time  |  max time  |%varavg| %total
---------------------------------------------------------------
Pair    | 9321.2     | 9321.2     | 9321.2     |   0.0 | 99.60
Neigh   | 30.818     | 30.818     | 30.818     |   0.0 |  0.33
Comm    | 2.8819     | 2.8819     | 2.8819     |   0.0 |  0.03
Output  | 0.015398   | 0.015398   | 0.015398   |   0.0 |  0.00
Modify  | 3.1007     | 3.1007     | 3.1007     |   0.0 |  0.03
Other   |            | 0.9028     |            |       |  0.01

Nlocal:        2400.00 ave        2400 max        2400 min
Histogram: 1 0 0 0 0 0 0 0 0 0
Nghost:        4851.00 ave        4851 max        4851 min
Histogram: 1 0 0 0 0 0 0 0 0 0
Neighs:         0.00000 ave           0 max           0 min
Histogram: 1 0 0 0 0 0 0 0 0 0
FullNghs:      239744.0 ave      239744 max      239744 min
Histogram: 1 0 0 0 0 0 0 0 0 0

Total # of neighbors = 239744
Ave neighs/atom = 99.893333
Neighbor list builds = 2210
Dangerous builds = 0

velocity        all scale ${Tsim}
velocity        all scale 1300
unfix           1

#-----------------------------------------
# 2nd equilibration run
compute         ke all ke/atom
variable        temp atom c_ke/1.5

fix             1 all nve

compute         layers all chunk/atom bin/1d z lower 0.05 units reduced # <--- delta z ?
fix             2 all ave/chunk 10 100 1000 layers v_temp file profile.mp # <--- use every 10 steps, 100 times, repeat every 1000 steps
fix             3 all thermal/conductivity 10 z 20 # <--- perform kintic energy swap every 10 steps, using 20 bins

variable        tdiff equal f_2[11][3]-f_2[1][3]
thermo_style    custom step temp epair etotal f_3 v_tdiff
thermo          1000
#thermo_modify   colname f_3 E_delta colname v_tdiff dTemp_step


run 200000
Per MPI rank memory allocation (min/avg/max) = 4.234 | 4.234 | 4.234 Mbytes
Step Temp E_pair TotEng f_3 v_tdiff 
   50000         1300   -10550.312   -10147.189            0            0 
   51000    1333.0159    -10560.55   -10147.188    51.474466  0.029665045 
   52000    1342.6241   -10563.522   -10147.181    95.657611  0.062827414 
   53000    1306.0941   -10552.193    -10147.18    138.63453  0.070235498 
   54000    1303.3689   -10551.339   -10147.171    180.87624  0.078677589 
   55000    1325.8492   -10558.326   -10147.187     223.8511  0.071200761 
   56000    1322.8301   -10557.401   -10147.198    265.25008  0.083173934 
   57000    1322.4031   -10557.251    -10147.18    306.50138  0.082925392 
   58000    1344.4223   -10564.089    -10147.19    346.88373  0.080040011 
   59000    1308.5292   -10552.956   -10147.188    388.04359  0.075624932 
   60000    1313.6879   -10554.528    -10147.16    429.32513  0.070825696 
   61000    1307.6343   -10552.659   -10147.168    474.01486   0.07323779 
   62000    1294.8517   -10548.703   -10147.176    515.26127  0.080311818 
   63000    1332.3451   -10560.332   -10147.178    557.59095  0.074401641 
   64000    1329.2485   -10559.373    -10147.18    597.60932  0.072182256 
   65000    1347.0473   -10564.894   -10147.181     641.3485  0.068925562 
   66000    1313.6005   -10554.514   -10147.173    684.38618   0.07896934 
   67000    1298.0844   -10549.694   -10147.165    725.27155  0.088562719 
   68000    1346.5363   -10564.741   -10147.187    764.35451  0.075657481 
   69000    1316.6482   -10555.465   -10147.179    806.79483  0.072773734 
   70000    1328.3459   -10559.079   -10147.166    848.37253   0.07738398 
   71000    1309.7365     -10553.3   -10147.157    889.85837  0.075666598 
   72000    1321.7691   -10557.046   -10147.172    929.93303  0.082678664 
   73000    1344.2818   -10564.016    -10147.16    973.70359  0.078013917 
   74000    1300.1056   -10550.304   -10147.147    1016.0629   0.07618521 
   75000    1321.1355   -10556.848    -10147.17    1057.0331  0.073798758 
   76000    1308.5819   -10552.941   -10147.157     1100.214  0.072524264 
   77000    1319.7516   -10556.425   -10147.176     1140.873  0.075768686 
   78000    1343.3113   -10563.721   -10147.166    1184.4395  0.075142164 
   79000    1308.8966   -10553.037   -10147.155     1223.164  0.075641669 
   80000    1313.0927   -10554.332   -10147.148    1263.8722   0.07741027 
   81000    1341.2834   -10563.098   -10147.172    1307.4506  0.081136596 
   82000    1330.9856   -10559.882    -10147.15     1348.587  0.078914277 
   83000    1322.7109   -10557.331   -10147.165    1387.8547  0.072867746 
   84000    1326.6243   -10558.501   -10147.121    1427.6418  0.072057741 
   85000    1342.5722   -10563.445    -10147.12    1471.1136  0.068696389 
   86000    1325.4642   -10558.146   -10147.126     1511.934  0.071021152 
   87000    1333.8398   -10560.725   -10147.107    1552.4342  0.076813821 
   88000    1327.9363   -10558.908   -10147.122    1595.4938  0.075960971 
   89000    1325.6407   -10558.199   -10147.125    1638.1577  0.078266062 
   90000    1298.2474   -10549.705   -10147.125     1680.756   0.07439524 
   91000    1292.1798   -10547.801   -10147.102    1720.2244  0.074412448 
   92000    1318.9012   -10556.093   -10147.108    1759.7704  0.082220991 
   93000    1324.6498   -10557.886   -10147.118    1800.6961  0.079378869 
   94000     1318.593    -10555.99   -10147.101    1843.0002  0.078648974 
   95000    1319.9381   -10556.402   -10147.096    1883.9986  0.085785187 
   96000    1334.9148   -10561.051     -10147.1    1925.7347  0.082648042 
   97000    1307.1539   -10552.438   -10147.096    1966.9382  0.081237183 
   98000    1327.8616   -10558.853   -10147.089    2010.0974  0.076205711 
   99000     1314.089   -10554.578   -10147.086    2048.0621  0.079960165 
  100000    1319.6934   -10556.306   -10147.075    2092.0454  0.070530896 
  101000    1296.6817   -10549.167   -10147.072    2133.8899  0.080174581 
  102000    1324.0066   -10557.638    -10147.07    2175.5424  0.078137005 
  103000    1313.3787   -10554.365   -10147.093    2219.5507  0.076060302 
  104000    1306.7317   -10552.297   -10147.086    2259.9369  0.078307585 
  105000    1310.9514   -10553.602   -10147.082    2299.7971  0.076360523 
  106000    1328.0897   -10558.915   -10147.081     2340.424  0.076198926 
  107000    1316.4804   -10555.308   -10147.074    2383.1813  0.068961294 
  108000    1306.0851   -10552.104   -10147.094    2425.5072  0.077852721 
  109000    1324.9548   -10557.942    -10147.08    2468.7526  0.068916919 
  110000    1341.2987    -10563.03     -10147.1    2511.9002  0.075542566 
  111000    1318.5936   -10555.976   -10147.086    2555.2853  0.074247389 
  112000    1316.5883   -10555.342   -10147.074    2595.8579  0.072544179 
  113000    1303.6724   -10551.328   -10147.066    2636.4743  0.075686341 
  114000    1329.2768   -10559.277   -10147.075    2677.5238   0.07998216 
  115000    1310.0789   -10553.317   -10147.068    2718.6385  0.076162139 
  116000    1316.4611   -10555.298    -10147.07    2762.8751   0.07679819 
  117000    1336.0314   -10561.353   -10147.056    2806.8791  0.072114744 
  118000    1322.0196   -10557.021    -10147.07    2849.2663  0.078053394 
  119000    1324.0404   -10557.644   -10147.065    2891.3999  0.078056802 
  120000     1339.021   -10562.282   -10147.058    2932.9042  0.082130459 
  121000    1353.6418   -10566.818   -10147.061    2973.6745  0.083722444 
  122000    1307.7346   -10552.567   -10147.045    3016.3365  0.085754527 
  123000    1287.5473   -10546.314   -10147.052    3058.8281  0.077996502 
  124000    1300.7885     -10550.4   -10147.032    3100.9479  0.070569843 
  125000    1319.0763   -10556.067   -10147.028    3141.4457  0.083248387 
  126000    1308.3278    -10552.73   -10147.024    3184.0947  0.075560878 
  127000    1305.3509   -10551.833    -10147.05    3224.5377  0.075601833 
  128000    1312.2887   -10553.968   -10147.033    3265.0585  0.082039226 
  129000    1305.9511   -10552.014   -10147.045    3305.4688    0.0744879 
  130000    1325.8283   -10558.192    -10147.06    3346.0828  0.069857162 
  131000    1320.5475    -10556.53   -10147.035     3389.177  0.068168942 
  132000    1327.6447   -10558.747   -10147.051    3431.7058  0.064420033 
  133000    1315.8469   -10555.075   -10147.038    3475.4807  0.073100368 
  134000    1346.1394   -10564.456   -10147.025    3516.1736  0.078426915 
  135000    1323.7331   -10557.495   -10147.012    3558.1526  0.073609212 
  136000    1343.6454   -10563.684   -10147.026     3598.781  0.075372265 
  137000     1301.632   -10550.637   -10147.007    3639.0891  0.079605267 
  138000    1342.7336   -10563.419   -10147.044    3681.6056  0.076371558 
  139000     1345.719   -10564.309   -10147.008    3724.0276  0.074486812 
  140000     1327.794   -10558.754   -10147.012    3766.1824  0.080491643 
  141000    1308.0393   -10552.619   -10147.003    3806.2769  0.073712384 
  142000    1282.3979   -10544.672   -10147.007    3848.8146  0.073460701 
  143000    1325.4136   -10558.007   -10147.003    3888.1974  0.076409115 
  144000    1313.6935   -10554.379   -10147.009    3930.8332  0.080154306 
  145000     1297.147   -10549.225   -10146.986    3972.5995  0.076939341 
  146000    1291.1892   -10547.381   -10146.989    4013.6563  0.077683437 
  147000    1319.7941   -10556.273   -10147.012    4055.0858  0.075316407 
  148000    1322.0807   -10556.973   -10147.002    4095.2982  0.074518494 
  149000    1314.8992   -10554.741   -10146.997    4135.2022  0.070444717 
  150000    1320.6983   -10556.557   -10147.015     4177.976  0.074660633 
  151000     1334.078   -10560.706   -10147.015    4218.9352  0.072906285 
  152000    1301.2061   -10550.508    -10147.01    4261.3423  0.077762967 
  153000    1344.7032   -10563.978   -10146.992    4300.4499  0.085390093 
  154000    1303.8351   -10551.299   -10146.986    4340.3974  0.072557855 
  155000    1339.0317   -10562.221   -10146.994    4381.0604  0.072814453 
  156000    1309.1792   -10552.957   -10146.987    4424.8966   0.07247408 
  157000    1343.5483   -10563.609   -10146.982    4466.6732  0.076048715 
  158000    1315.6164   -10554.938   -10146.971    4509.2481  0.074592551 
  159000    1322.7082   -10557.122   -10146.957    4549.3132  0.071700909 
  160000    1312.5293   -10553.981   -10146.973     4592.053  0.073557943 
  161000    1318.0009   -10555.681   -10146.975    4631.7908  0.071502129 
  162000    1319.3301   -10556.063   -10146.946     4674.205  0.072785638 
  163000    1292.9799   -10547.926   -10146.979    4715.9127  0.079934434 
  164000    1331.5276   -10559.875   -10146.975     4757.219  0.080712683 
  165000    1313.7863   -10554.361   -10146.963    4795.6227  0.083966958 
  166000     1329.894   -10559.356   -10146.963    4837.5226  0.080117515 
  167000    1339.9132   -10562.486   -10146.986     4878.626  0.071796073 
  168000    1338.0976   -10561.904   -10146.967    4919.2598  0.079296098 
  169000    1327.3311   -10558.576   -10146.977    4962.5144  0.072976465 
  170000    1307.2786   -10552.317   -10146.937    5001.9848  0.077433531 
  171000    1303.4509   -10551.145   -10146.951    5043.1555  0.076617434 
  172000    1314.7383   -10554.643   -10146.949    5086.4702   0.07572257 
  173000    1322.3637    -10556.99   -10146.932     5126.504  0.073580067 
  174000    1318.0539   -10555.663   -10146.941    5165.6256  0.072159044 
  175000     1312.811   -10554.036    -10146.94    5205.7251  0.081530003 
  176000    1329.8415   -10559.332   -10146.955    5245.5469  0.081506563 
  177000    1312.6221   -10553.967   -10146.929    5288.6376  0.078010508 
  178000    1305.9609   -10551.907   -10146.935    5332.0583  0.077067859 
  179000    1317.7712   -10555.554   -10146.919     5372.444  0.083364502 
  180000    1299.7929   -10549.991   -10146.932    5417.0713  0.074445114 
  181000    1298.9927   -10549.732   -10146.921    5457.9133  0.084069907 
  182000    1299.6079   -10549.942    -10146.94    5498.9227  0.084640233 
  183000    1312.3247   -10553.851   -10146.905    5540.2385  0.082747505 
  184000    1293.1944    -10547.92   -10146.907    5578.4834  0.086832192 
  185000    1341.3128   -10562.886   -10146.951    5619.7299  0.083949097 
  186000    1344.5715   -10563.885    -10146.94    5659.8879  0.082293065 
  187000    1327.2845   -10558.482   -10146.898    5699.0704  0.078378643 
  188000    1313.3219    -10554.16   -10146.905    5741.2767  0.078270334 
  189000    1330.6838   -10559.547   -10146.908    5779.5646  0.074628034 
  190000    1315.9472   -10554.978   -10146.909    5820.7324  0.079333246 
  191000    1335.0825   -10560.907   -10146.905    5863.2314   0.07273371 
  192000    1292.2206   -10547.602    -10146.89    5906.3939  0.073471947 
  193000     1297.952   -10549.366   -10146.878    5947.3756  0.078287099 
  194000    1332.5159   -10560.109   -10146.903    5988.9724  0.078229871 
  195000    1335.9012   -10561.169   -10146.913    6030.8801  0.068549115 
  196000    1327.6618   -10558.592    -10146.89    6070.4356   0.07538429 
  197000    1339.6712   -10562.313   -10146.888    6109.7474  0.076225309 
  198000    1293.5233    -10548.02   -10146.904    6151.1956  0.073126211 
  199000    1296.8721   -10549.034   -10146.881    6191.0218  0.069408855 
  200000    1308.7746   -10552.728   -10146.883    6230.0245  0.078268575 
  201000    1315.5287   -10554.854   -10146.915    6272.6657  0.075546899 
  202000    1320.5988   -10556.396   -10146.884    6312.8115  0.081965041 
  203000    1300.7745   -10550.256   -10146.892    6352.6806  0.074066495 
  204000     1301.107    -10550.37   -10146.903    6391.9699  0.081307751 
  205000    1324.3623   -10557.555   -10146.876    6432.3375   0.08704387 
  206000    1331.6719   -10559.855   -10146.911    6474.7149  0.070879441 
  207000    1345.1257   -10564.009   -10146.892    6516.4392  0.077730729 
  208000    1297.6395   -10549.287   -10146.895     6559.037  0.074751666 
  209000    1310.1612   -10553.172   -10146.897    6600.6195  0.070493939 
  210000    1328.5807   -10558.878   -10146.892    6641.0173  0.073375677 
  211000     1300.877   -10550.284   -10146.889    6683.3152  0.068303911 
  212000    1290.4548   -10547.028   -10146.865    6723.9483  0.068833339 
  213000    1311.8517   -10553.684   -10146.885    6764.1916  0.073351214 
  214000    1329.4291   -10559.141   -10146.891    6807.5575  0.067592704 
  215000    1305.5707   -10551.737   -10146.886    6848.4336  0.071053011 
  216000    1310.5446   -10553.272   -10146.879    6891.0193  0.071393702 
  217000    1308.9048   -10552.779   -10146.894    6934.3695   0.07574551 
  218000    1339.0594   -10562.116    -10146.88    6975.1557  0.072533521 
  219000    1312.0955   -10553.741   -10146.867    7017.0505  0.081971403 
  220000    1307.0979   -10552.184   -10146.859    7058.4912   0.07590525 
  221000    1299.8619    -10549.94    -10146.86    7099.9732  0.078398516 
  222000    1308.1116   -10552.514   -10146.875    7141.4648  0.077307836 
  223000    1304.5568   -10551.397   -10146.861    7181.3839  0.075338321 
  224000    1310.7009   -10553.296   -10146.854    7224.0999   0.07140331 
  225000    1324.2079   -10557.492   -10146.862    7264.1119   0.07487139 
  226000     1310.662   -10553.273   -10146.844    7308.1819  0.073759191 
  227000    1333.1944   -10560.284   -10146.867    7349.6863  0.074920196 
  228000    1338.1345   -10561.807   -10146.858     7391.929  0.084310513 
  229000    1309.0796   -10552.774   -10146.835    7433.8529  0.080035423 
  230000    1314.5297   -10554.444   -10146.815    7474.9436  0.081600109 
  231000    1298.2892   -10549.439   -10146.846    7518.3538  0.074028893 
  232000    1308.1261   -10552.495   -10146.852    7558.6699  0.078098809 
  233000     1334.031    -10560.53   -10146.854    7600.4125  0.078406176 
  234000    1277.8915   -10543.093   -10146.825    7640.9336  0.082537785 
  235000    1329.7119   -10559.175   -10146.838    7681.9222  0.069703918 
  236000    1306.8757   -10552.073   -10146.817    7723.1961  0.077705746 
  237000    1303.1337   -10550.926    -10146.83    7764.0817  0.076408846 
  238000    1343.5324   -10563.472   -10146.849    7803.3758  0.077424582 
  239000    1306.8527   -10552.084   -10146.835    7843.0532   0.07971123 
  240000    1314.9027   -10554.599   -10146.854    7883.6286  0.072325906 
  241000    1330.9189   -10559.552    -10146.84    7924.7198  0.074677233 
  242000    1304.0878   -10551.206   -10146.815    7965.3156  0.068949933 
  243000    1298.2289   -10549.377   -10146.803    8003.7563   0.06763803 
  244000    1330.4164   -10559.386    -10146.83    8045.6372  0.078279204 
  245000    1318.0479   -10555.532   -10146.812     8084.383  0.072313286 
  246000    1302.9972   -10550.857   -10146.804     8129.662  0.071619333 
  247000    1317.0569    -10555.23   -10146.818    8171.6023  0.070487145 
  248000    1355.1121   -10567.039   -10146.825     8212.271  0.077172518 
  249000    1310.7764   -10553.261   -10146.795     8252.856  0.070905558 
  250000    1322.7857   -10556.983   -10146.794    8292.6149   0.07415348 
Loop time of 37337.6 on 1 procs for 200000 steps with 2400 atoms

Performance: 0.463 ns/day, 51.858 hours/ns, 5.357 timesteps/s
98.5% CPU use with 1 MPI tasks x 1 OpenMP threads

MPI task timing breakdown:
Section |  min time  |  avg time  |  max time  |%varavg| %total
---------------------------------------------------------------
Pair    | 37180      | 37180      | 37180      |   0.0 | 99.58
Neigh   | 132.38     | 132.38     | 132.38     |   0.0 |  0.35
Comm    | 11.665     | 11.665     | 11.665     |   0.0 |  0.03
Output  | 0.0061392  | 0.0061392  | 0.0061392  |   0.0 |  0.00
Modify  | 9.9319     | 9.9319     | 9.9319     |   0.0 |  0.03
Other   |            | 3.716      |            |       |  0.01

Nlocal:        2400.00 ave        2400 max        2400 min
Histogram: 1 0 0 0 0 0 0 0 0 0
Nghost:        4816.00 ave        4816 max        4816 min
Histogram: 1 0 0 0 0 0 0 0 0 0
Neighs:         0.00000 ave           0 max           0 min
Histogram: 1 0 0 0 0 0 0 0 0 0
FullNghs:      239572.0 ave      239572 max      239572 min
Histogram: 1 0 0 0 0 0 0 0 0 0

Total # of neighbors = 239572
Ave neighs/atom = 99.821667
Neighbor list builds = 9445
Dangerous builds = 0

#------------------------------------------
# thermal conductivity calculation
# reset fix thermal/conductivity to zero energy accumulation
fix             3 all thermal/conductivity 10 z 20

variable start_time equal time
variable kappa equal (f_3/(time-${start_time})/(lx*ly)/2.0)*(lz/2.0)/f_ave
variable kappa equal (f_3/(time-250)/(lx*ly)/2.0)*(lz/2.0)/f_ave

fix             ave all ave/time 1 1 1000 v_tdiff ave running
thermo_style    custom step temp epair etotal f_3 v_tdiff f_ave
# thermo_modify   colname f_3 E_delta colname v_tdiff dTemp_step colname f_ave dTemp

run 200000
Per MPI rank memory allocation (min/avg/max) = 4.486 | 4.486 | 4.486 Mbytes
Step Temp E_pair TotEng f_3 v_tdiff f_ave 
  250000    1322.7857   -10556.979    -10146.79            0   0.07415348   0.07415348 
  251000     1321.211    -10556.48   -10146.779    40.296192  0.076378456  0.075265968 
  252000     1310.805   -10553.252   -10146.778    81.620065  0.078313974   0.07628197 
  253000    1312.8999   -10553.894    -10146.77    124.88124  0.067117251   0.07399079 
  254000    1281.7717   -10544.226   -10146.754    167.39216  0.074230543  0.074038741 
  255000    1331.7261   -10559.734   -10146.773    207.76222  0.072930285  0.073853998 
  256000    1330.8156   -10559.467   -10146.787    247.80946  0.087351615  0.075782229 
  257000     1314.826   -10554.486   -10146.765    289.08718  0.081381854  0.076482182 
  258000    1314.5189   -10554.383   -10146.757    329.67942  0.082361918  0.077135486 
  259000    1362.2295   -10569.188   -10146.767    369.14543  0.073680343  0.076789972 
  260000     1321.749   -10556.611   -10146.743    410.49412  0.075567335  0.076678823 
  261000    1324.3783   -10557.446   -10146.763    450.44069    0.0698368  0.076108655 
  262000    1334.7977   -10560.653   -10146.739    492.72621  0.075288177  0.076045541 
  263000    1327.3367   -10558.355   -10146.755    530.96832  0.074184445  0.075912605 
  264000    1307.9313   -10552.322   -10146.739     570.8901  0.083816994  0.076439565 
  265000    1323.7867   -10557.256   -10146.756    608.79051    0.0863517  0.077059073 
  266000    1310.4599   -10553.109   -10146.742    649.93991  0.075638154   0.07697549 
  267000    1340.9449   -10562.555   -10146.734    691.10739  0.078789756  0.077076282 
  268000    1338.1873   -10561.718   -10146.752    732.95689  0.084119649  0.077446986 
  269000    1316.9937   -10555.114   -10146.721    773.76422  0.086342384  0.077891756 
  270000    1330.0316   -10559.152   -10146.716    813.69597  0.085419548  0.078250222 
  271000    1303.0322   -10550.765   -10146.701    853.64885  0.074218573  0.078066965 
  272000    1299.5298    -10549.69   -10146.713    892.92424  0.083043882  0.078283353 
  273000    1307.1641   -10552.078   -10146.733    933.36045  0.078780339  0.078304061 
  274000    1307.2909   -10552.089   -10146.704    972.52439  0.081078126  0.078415023 
  275000    1318.3474   -10555.527   -10146.714    1012.8477  0.073751432  0.078235654 
  276000    1327.3167   -10558.297   -10146.703    1055.0067  0.070429457  0.077946536 
  277000    1320.6572   -10556.215   -10146.686     1098.326  0.067243387  0.077564281 
  278000    1275.5433   -10542.222   -10146.682    1140.6534  0.071119801  0.077342057 
  279000    1316.3369   -10554.884   -10146.694    1181.7751  0.071706847  0.077154217 
  280000    1307.6939   -10552.189    -10146.68    1223.3977  0.077893459  0.077178063 
  281000    1341.1756   -10562.557   -10146.665    1264.0628  0.083054109   0.07736169 
  282000    1321.9827    -10556.64   -10146.699    1306.0287  0.073343159  0.077239916 
  283000     1302.483   -10550.554    -10146.66    1346.8594  0.065206839  0.076886002 
  284000     1316.029   -10554.763   -10146.669     1389.427  0.073816911  0.076798314 
  285000    1345.4141   -10563.871   -10146.665    1429.4491  0.076683685   0.07679513 
  286000    1290.3895   -10546.788   -10146.645    1472.0393  0.075189487  0.076751734 
  287000    1329.1427   -10558.837   -10146.676      1514.01  0.083480257    0.0769288 
  288000    1300.9079   -10550.067   -10146.662    1552.9856  0.076192787  0.076909928 
  289000    1338.1869   -10561.623   -10146.658    1594.0941  0.076660132  0.076903683 
  290000    1321.4008   -10556.402   -10146.642    1635.0471  0.078969664  0.076954073 
  291000    1328.3847   -10558.573   -10146.648    1674.8513  0.077575128   0.07696886 
  292000     1319.449   -10555.802   -10146.647    1713.9835   0.07281387  0.076872232 
  293000    1309.5385   -10552.722    -10146.64    1754.8851  0.077676649  0.076890515 
  294000    1325.0334    -10557.51   -10146.623    1796.6556  0.078613233  0.076928797 
  295000    1314.8827   -10554.381   -10146.642    1837.8816  0.079674167  0.076988479 
  296000    1325.4977   -10557.662   -10146.632    1881.9628  0.077326856  0.076995679 
  297000    1328.7851   -10558.676   -10146.626    1922.4239  0.084078448  0.077143236 
  298000    1320.4377   -10556.067   -10146.606    1964.1366  0.078936199  0.077179827 
  299000    1339.6571   -10562.052   -10146.631    2005.4478  0.075644501  0.077149121 
  300000    1308.9963   -10552.542   -10146.629    2045.8976  0.078373399  0.077173126 
  301000    1346.2947   -10564.104   -10146.625    2087.2477  0.077067104  0.077171088 
  302000    1308.9809   -10552.501   -10146.592    2130.1862  0.072705193  0.077086825 
  303000    1337.1283   -10561.246   -10146.609    2172.0855  0.075981071  0.077066348 
  304000    1325.8631   -10557.762   -10146.618    2212.3652  0.084401674  0.077199718 
  305000    1322.8809   -10556.836   -10146.617    2253.6297  0.072879832  0.077122577 
  306000    1300.3313   -10549.833   -10146.607    2293.5726  0.078800712  0.077152018 
  307000    1317.3486    -10555.09   -10146.587     2337.286  0.075393692  0.077121702 
  308000    1316.2299   -10554.752   -10146.596    2378.6009  0.071907037  0.077033318 
  309000    1297.4867   -10548.935    -10146.59    2419.2474   0.07328777  0.076970892 
  310000    1327.7155   -10558.306   -10146.588    2463.0284  0.074538198  0.076931012 
  311000    1306.4825   -10551.718   -10146.584    2505.3426  0.077039544  0.076932763 
  312000    1330.5327   -10559.194   -10146.603    2548.0082  0.081931349  0.077012105 
  313000    1319.6033   -10555.782    -10146.58    2589.0187   0.08389345  0.077119626 
  314000    1331.3039    -10559.42   -10146.589    2629.4593  0.085780669  0.077252873 
  315000    1315.4742   -10554.483   -10146.561    2670.5174  0.077481496  0.077256337 
  316000    1337.7254   -10561.403   -10146.581    2711.9168  0.082117001  0.077328884 
  317000    1308.1017   -10552.217   -10146.581    2752.0133  0.085294236  0.077446022 
  318000    1317.1993   -10555.032   -10146.575    2793.6306  0.073962629  0.077395538 
  319000    1322.0036   -10556.533   -10146.586    2834.5383  0.075485585  0.077368253 
  320000    1345.5197   -10563.826   -10146.587    2876.9876  0.074136095  0.077322729 
  321000    1296.9966   -10548.784   -10146.592    2919.9062  0.066690066  0.077175054 
  322000    1313.7802   -10553.993   -10146.596    2961.4661  0.074312035  0.077135834 
  323000    1306.9159   -10551.834   -10146.566    3001.7626   0.07357667  0.077087737 
  324000    1317.8857   -10555.226   -10146.556    3040.5076   0.07744479  0.077092498 
  325000    1301.6197   -10550.183   -10146.557      3081.29  0.075792694  0.077075395 
  326000    1305.7467    -10551.48   -10146.575    3122.1822  0.074319164    0.0770396 
  327000    1296.3013   -10548.531   -10146.555    3165.2868  0.079403284  0.077069904 
  328000    1327.1051   -10558.119    -10146.59    3207.2331  0.074972609  0.077043356 
  329000    1308.3495   -10552.281   -10146.569    3247.2028   0.07987963  0.077078809 
  330000    1337.2326   -10561.247   -10146.578    3287.0449  0.083177315  0.077154099 
  331000    1325.3945   -10557.552   -10146.553     3328.142  0.077561919  0.077159073 
  332000    1311.2108    -10553.17    -10146.57     3369.605  0.073548449  0.077115571 
  333000    1292.8084   -10547.454   -10146.561    3410.3296  0.076883807  0.077112812 
  334000    1347.2481   -10564.356   -10146.581    3452.9469  0.071438325  0.077046053 
  335000    1357.9864   -10567.689   -10146.585    3495.8468  0.072971315  0.076998673 
  336000    1306.2732   -10551.635   -10146.566    3536.0067  0.071448725   0.07693488 
  337000    1348.4616   -10564.729   -10146.578     3578.664  0.074448104  0.076906621 
  338000    1331.6675   -10559.521   -10146.578    3620.1794  0.076914642  0.076906712 
  339000    1291.9637   -10547.202   -10146.571    3661.7661  0.079906991  0.076940048 
  340000    1292.0301   -10547.188   -10146.536    3704.5708  0.080590398  0.076980162 
  341000    1344.2262   -10563.409   -10146.571    3746.7125  0.072626608  0.076932841 
  342000    1315.5067    -10554.48   -10146.548    3787.0437  0.073758194  0.076898705 
  343000    1296.7842   -10548.665   -10146.539    3830.1327  0.074117084  0.076869113 
  344000    1312.7252   -10553.642   -10146.572    3870.5912  0.078733781  0.076888741 
  345000    1320.3451    -10555.98   -10146.548    3911.6838  0.080525261  0.076926621 
  346000    1331.8411    -10559.57   -10146.573    3952.0984  0.078119712  0.076938921 
  347000    1301.2289   -10550.038   -10146.533    3992.8412  0.079832654  0.076968449 
  348000    1328.0727   -10558.372   -10146.543    4034.9819  0.071709595  0.076915329 
  349000    1354.2209   -10566.476   -10146.538    4076.1091  0.076275207  0.076908928 
  350000     1326.985   -10558.028   -10146.537    4119.1791  0.072053617  0.076860856 
  351000    1291.5158   -10547.006   -10146.513    4159.9099  0.068950315  0.076783301 
  352000    1295.9661   -10548.391   -10146.518    4200.7581  0.069158661  0.076709276 
  353000     1326.521   -10557.878    -10146.53    4240.8078  0.071022028  0.076654591 
  354000    1308.3097    -10552.23    -10146.53    4282.2095  0.075374628  0.076642401 
  355000    1301.7664   -10550.188   -10146.517    4323.0573  0.078420801  0.076659178 
  356000    1365.3223   -10569.904   -10146.525     4364.208  0.077677448  0.076668695 
  357000    1318.5637   -10555.387   -10146.507     4403.752  0.081376236  0.076712283 
  358000     1337.266    -10561.18     -10146.5    4444.8831  0.077680007  0.076721161 
  359000    1320.2909   -10555.936    -10146.52    4485.2122  0.080598887  0.076756413 
  360000    1314.8419   -10554.231   -10146.505    4526.9225  0.075738777  0.076747245 
  361000     1327.482    -10558.15   -10146.505    4570.5564  0.070841889  0.076694519 
  362000    1304.5012   -10551.015   -10146.495    4612.6198  0.084725225  0.076765587 
  363000    1329.0013    -10558.63   -10146.513    4653.0981  0.078080352   0.07677712 
  364000    1331.0792   -10559.253   -10146.492    4695.0356  0.078172864  0.076789257 
  365000    1332.3874   -10559.654   -10146.488    4734.9304  0.074994303  0.076773783 
  366000    1299.0243    -10549.31   -10146.489      4776.27  0.065930656  0.076681107 
  367000    1298.8333   -10549.252    -10146.49    4817.9544  0.073162047  0.076651284 
  368000     1336.779   -10561.021   -10146.492    4862.8101  0.072861727  0.076619439 
  369000    1304.1538   -10550.908   -10146.497     4905.284  0.075634651  0.076611233 
  370000    1362.5384   -10569.021   -10146.505    4946.9555  0.073040203   0.07658172 
  371000    1327.3365   -10558.094   -10146.493    4988.9719  0.079490077  0.076605559 
  372000    1349.2314   -10564.882   -10146.492    5030.6336  0.082850213  0.076656329 
  373000    1341.9351   -10562.615   -10146.488    5075.4639  0.078854327  0.076674054 
  374000    1303.7647   -10550.755   -10146.464    5117.5114  0.082310766  0.076719148 
  375000    1313.4227   -10553.765   -10146.479    5158.4313  0.074023664  0.076697755 
  376000    1292.6271   -10547.309   -10146.471    5197.9291  0.080354408  0.076726548 
  377000    1352.1269   -10565.775   -10146.487    5238.8978  0.083859009   0.07678227 
  378000    1308.1593   -10552.142   -10146.488    5279.4939  0.078611711  0.076796452 
  379000    1307.3595   -10551.891   -10146.485    5321.1679  0.078949211  0.076813012 
  380000    1344.7964   -10563.517   -10146.502    5363.1127  0.082147801  0.076853735 
  381000    1344.8706   -10563.556   -10146.518    5405.0409  0.075817869  0.076845888 
  382000    1315.1208   -10554.291   -10146.479    5446.8955  0.071338091  0.076804476 
  383000    1330.9633   -10559.192   -10146.467    5488.7017  0.076769452  0.076804214 
  384000    1363.0164   -10569.154    -10146.49     5530.929  0.074452996  0.076786798 
  385000     1315.063   -10554.267   -10146.472     5570.329  0.075903821  0.076780306 
  386000    1305.1706   -10551.196   -10146.469    5613.5125  0.077381403  0.076784693 
  387000    1324.9735   -10557.337   -10146.469    5653.7712  0.077619572  0.076790743 
  388000    1325.1044   -10557.372   -10146.464    5694.8812  0.074584108  0.076774868 
  389000    1313.6486    -10553.84   -10146.484    5735.3499   0.06910811  0.076720105 
  390000    1340.1687    -10562.06    -10146.48     5775.596  0.075552571  0.076711825 
  391000    1318.2013   -10555.246   -10146.478    5816.8248  0.074270494  0.076694632 
  392000    1317.0303   -10554.893   -10146.488    5859.0871  0.078069253  0.076704245 
  393000    1331.6274   -10559.399   -10146.468    5901.1991  0.066263046  0.076631737 
  394000    1290.5198   -10546.648   -10146.465    5944.2369  0.070936846  0.076592462 
  395000     1301.406   -10550.017   -10146.457    5987.9506  0.073168379  0.076569009 
  396000    1327.6446   -10558.151   -10146.455    6030.7931  0.069256429  0.076519264 
  397000    1326.8086   -10557.927    -10146.49    6073.0498  0.081840791   0.07655522 
  398000    1321.2246   -10556.174   -10146.469    6114.4374  0.072257893  0.076526379 
  399000    1319.7225   -10555.715   -10146.475    6155.4585  0.076897105   0.07652885 
  400000    1309.0476   -10552.405   -10146.476    6197.0547  0.074389198   0.07651468 
  401000    1349.2121   -10564.873   -10146.489    6236.4396  0.078585011  0.076528301 
  402000    1329.2213   -10558.662   -10146.477    6279.4368  0.078815166  0.076543248 
  403000    1297.7594   -10548.892   -10146.463    6318.3823  0.078988603  0.076559127 
  404000    1325.9718   -10557.632   -10146.454    6360.4351  0.077307967  0.076563958 
  405000    1324.0495   -10557.038   -10146.457    6402.6093  0.074379344  0.076549954 
  406000    1317.7887   -10555.091   -10146.451    6444.3599  0.077421861  0.076555508 
  407000     1329.577   -10558.762   -10146.466    6486.9643  0.076057311  0.076552355 
  408000    1293.2855   -10547.464   -10146.422    6527.7924  0.079492675  0.076570847 
  409000    1320.4515    -10555.92   -10146.454    6568.3334  0.083186127  0.076612193 
  410000    1323.8549   -10556.977   -10146.456    6612.2254  0.075245761  0.076603705 
  411000     1298.457   -10549.096   -10146.451    6654.7442  0.079815565  0.076623532 
  412000    1326.6957   -10557.853   -10146.451    6696.7193  0.079909484  0.076643691 
  413000    1308.6963   -10552.294   -10146.474    6737.1721  0.078638831  0.076655856 
  414000    1342.6587   -10562.817   -10146.466    6778.1111  0.073037341  0.076633926 
  415000    1312.9506   -10553.608   -10146.469    6819.8746  0.075033173  0.076624283 
  416000    1363.2239     -10569.2   -10146.471     6861.456  0.077248185  0.076628019 
  417000    1299.1224   -10549.289   -10146.438    6902.6585  0.077461332  0.076632979 
  418000    1309.9971   -10552.654   -10146.431    6943.1748  0.081920418  0.076664266 
  419000    1320.4847   -10555.927   -10146.451    6984.0002  0.077120349  0.076666949 
  420000    1319.6215   -10555.624   -10146.416    7025.3917  0.080048283  0.076686722 
  421000    1317.1832   -10554.892    -10146.44    7068.4105  0.071038812  0.076653886 
  422000    1307.4286   -10551.871   -10146.444    7110.0592  0.075404417  0.076646663 
  423000    1320.5645   -10555.927   -10146.426    7153.2499  0.071252633  0.076615663 
  424000    1312.0519   -10553.279   -10146.418    7195.4987  0.078477234  0.076626301 
  425000    1334.6197   -10560.289    -10146.43    7237.0148   0.07123468  0.076595667 
  426000    1341.2132   -10562.328   -10146.424    7279.6993   0.07317729  0.076576354 
  427000    1311.7053   -10553.152   -10146.399    7320.5364  0.077817714  0.076583328 
  428000    1330.2787   -10558.937   -10146.424    7363.7471  0.073123541  0.076563999 
  429000    1315.1027   -10554.211   -10146.404    7405.9342  0.070151177  0.076528372 
  430000    1339.8426   -10561.895   -10146.416    7446.9939  0.073044011  0.076509122 
  431000    1348.0903   -10564.449   -10146.413    7488.3493  0.068490549  0.076465064 
  432000    1307.7869   -10551.952   -10146.414    7529.2316  0.075574197  0.076460196 
  433000     1273.523   -10541.325   -10146.412    7570.7828  0.074825836  0.076451313 
  434000     1332.458   -10559.569   -10146.381    7611.2101  0.079940277  0.076470172 
  435000    1319.9907   -10555.733   -10146.411    7651.1183  0.080478524  0.076491723 
  436000     1300.627   -10549.704   -10146.386    7692.3796  0.071643202  0.076465795 
  437000    1296.0075   -10548.278   -10146.393    7734.6647   0.07348689   0.07644995 
  438000    1309.5174    -10552.49   -10146.415    7775.1843  0.074130963   0.07643768 
  439000    1346.7916   -10564.033     -10146.4    7816.3568  0.076936746  0.076440306 
  440000    1326.1615   -10557.628   -10146.392     7857.149  0.075917908  0.076437571 
  441000    1313.1841    -10553.63   -10146.418    7896.9039  0.079501054  0.076453527 
  442000    1305.9426   -10551.353   -10146.386    7939.5954  0.076079947  0.076451591 
  443000    1346.6686   -10564.022   -10146.427    7981.7092  0.073999875  0.076438954 
  444000    1327.1083   -10557.937   -10146.407    8023.7664  0.072438485  0.076418438 
  445000    1331.1096   -10559.168   -10146.397    8064.7891  0.079865319  0.076436025 
  446000    1322.6399   -10556.528   -10146.384     8104.839  0.080362655  0.076455957 
  447000    1324.2915   -10557.052   -10146.395    8146.5561  0.083597963  0.076492027 
  448000    1333.8963   -10560.056   -10146.421    8188.7239  0.083550686  0.076527498 
  449000    1343.7945   -10563.108   -10146.404    8230.0166  0.077030798  0.076530015 
  450000    1320.9451   -10556.017   -10146.398     8271.625  0.077179489  0.076533246 
Loop time of 37351.6 on 1 procs for 200000 steps with 2400 atoms

Performance: 0.463 ns/day, 51.877 hours/ns, 5.355 timesteps/s
98.5% CPU use with 1 MPI tasks x 1 OpenMP threads

MPI task timing breakdown:
Section |  min time  |  avg time  |  max time  |%varavg| %total
---------------------------------------------------------------
Pair    | 37194      | 37194      | 37194      |   0.0 | 99.58
Neigh   | 132.4      | 132.4      | 132.4      |   0.0 |  0.35
Comm    | 11.675     | 11.675     | 11.675     |   0.0 |  0.03
Output  | 0.0053826  | 0.0053826  | 0.0053826  |   0.0 |  0.00
Modify  | 10.094     | 10.094     | 10.094     |   0.0 |  0.03
Other   |            | 3.725      |            |       |  0.01

Nlocal:        2400.00 ave        2400 max        2400 min
Histogram: 1 0 0 0 0 0 0 0 0 0
Nghost:        4893.00 ave        4893 max        4893 min
Histogram: 1 0 0 0 0 0 0 0 0 0
Neighs:         0.00000 ave           0 max           0 min
Histogram: 1 0 0 0 0 0 0 0 0 0
FullNghs:      240098.0 ave      240098 max      240098 min
Histogram: 1 0 0 0 0 0 0 0 0 0

Total # of neighbors = 240098
Ave neighs/atom = 100.04083
Neighbor list builds = 9472
Dangerous builds = 0
print           "Running average thermal conductivity: $(v_kappa:%.2f)"
Running average thermal conductivity: 8.00

# unfix NVT
# timestep .1
# fix NVT all nvt temp ${Tsim} ${Tsim} $(10.0*dt)
# run 100
write_data	Therm_${Tsim}_restartpoint.lammps
write_data	Therm_1300_restartpoint.lammps
System init for write_data ...

Total wall time: 23:22:19
