LAMMPS data file via write_data, version 29 Sep 2021, timestep = 450000

2400 atoms
3 atom types

0 22.50375874 xlo xhi
0 33.75563811 ylo yhi
0 45.00751748 zlo zhi

Masses

1 18.998403163
2 6.938
3 22.989769

Atoms # atomic

989 3 3.208444502499225 1.5808546272168467 3.135688908142949 3 1 0
548 1 0.3226272830939596 0.7116557570663615 2.405315247750119 0 0 0
776 3 5.024771987324423 0.5385808977337871 0.9373725857206225 2 0 0
619 1 6.938571431256595 1.1502269768783318 2.906657513355338 -2 -1 1
942 1 4.511863213945058 4.082292135631342 3.474841493091754 2 0 0
1492 3 5.082689867556856 4.081176826266174 1.3824352966424927 2 0 0
119 1 3.8684491329578354 33.18626287828818 2.7188040072212005 1 -1 1
1740 1 3.566794202249835 2.495785700415606 1.1013671616807224 -2 1 2
407 1 9.815037707167402 1.54419080780702 1.1991586922918467 1 1 0
277 3 8.802378598087868 33.70869217625365 2.4267576328467713 -4 -1 0
496 3 11.140442296772365 33.63531624073174 1.1343526471403313 1 0 0
2102 1 10.522310515892295 0.3514455796832729 3.640587659836478 1 1 1
2285 3 10.843038133261818 3.0140526684487288 2.552617457864147 -3 1 1
1028 1 12.861755239737906 1.3511376460581148 2.004108503803317 0 0 1
1457 2 18.241373450530595 1.269751398435133 1.814286004390093 -3 0 0
1430 1 18.826584702857858 33.53193715661391 2.7046543355327017 -3 -1 1
2242 1 16.572014971787226 2.0169261979538615 1.8817805393058564 -2 2 1
2391 3 20.256271792515673 4.131212047851662 4.417840445086591 -2 0 1
1002 1 15.491787684861677 33.24967240014049 3.489471498090225 -1 2 0
1992 3 21.07663904142574 0.7836543967614282 0.746937687792224 0 1 1
933 1 21.174268857529746 2.4096434717808126 44.40576031095707 1 3 0
1607 1 20.312848265723225 3.5263971774999447 1.7701750237683485 -2 2 -1
2098 3 0.2212846210004572 3.5679240761477162 1.7971095719225827 0 1 0
904 1 22.26739129696774 5.582230297714126 0.7012073245894669 -1 0 1
526 1 0.7147193535971086 7.762865331952322 43.72507386478842 -1 0 -1
323 1 2.3543151538773084 6.447867522275485 1.964013252229749 0 1 1
2057 2 21.511578045424955 6.799018442339878 44.801480155269545 -2 -1 -2
1353 2 3.1171185644882837 8.458015129244915 2.2107292746877114 1 -1 -2
753 2 21.307553516684937 9.683125101744604 3.5696098330130273 1 -1 1
684 3 2.85877272165453 5.265791776508565 3.6307346725103624 -3 3 2
125 1 1.2777149063523643 7.175753995508063 5.501070300668427 2 -1 0
280 3 2.2017023985150823 6.2695173824757715 44.52679622767621 -1 0 -1
1130 1 7.412770081561859 5.168388101775445 2.194917998783313 -2 1 1
478 3 5.604587693854432 6.38950334368495 6.400998415704849 3 0 1
87 3 8.22288797676513 3.199030459852716 2.109381906315445 -1 0 -1
1226 1 8.86013768188448 7.059871072930212 0.16535700830760056 -1 0 1
366 2 7.594824838537944 3.443754390173778 43.68388924863389 2 1 -2
759 2 14.982418823795255 4.169698370375086 0.8490589843614483 -1 -2 1
455 2 10.4711596952507 5.452140714230209 0.199036469868762 -3 1 0
115 1 9.407476056454168 4.199273302846928 0.753045618264688 2 1 0
1955 2 12.660860392616863 5.612842761467443 1.5224130682338815 -2 1 1
1009 1 12.914423020183428 4.34199090541754 0.3836585567200458 3 1 0
1121 1 14.701442309025456 4.311104373986179 2.4893423513636614 -2 1 1
404 1 15.643737038781941 4.6472006455014165 44.215921710555776 -1 1 1
1343 1 13.647386083303065 6.908531353289266 1.1852163641051776 3 0 1
888 3 17.2944249386775 3.6460986295747384 0.5260433647046205 -3 -1 0
2049 1 17.473763318297856 7.296366806961788 43.157240511981584 1 0 0
2111 1 17.816141804913507 5.315944624867524 2.148082886488574 2 1 -2
1165 2 21.355200495622967 3.9339844866663185 43.596603541726644 -1 2 0
464 2 19.851169519333723 5.124667663976236 1.1935225920679378 1 1 0
502 1 19.601412997623715 6.929935965812483 0.29737656532955037 -1 2 1
728 1 21.658593054941555 7.69694129238068 3.267136839352394 1 0 0
2243 1 2.746262380284123 9.808374601709039 0.7933527891462571 0 1 1
266 2 0.14502911830750242 6.555814941217859 2.214323111170321 2 -1 -1
2219 1 2.47872252108096 9.505227106285059 3.570370922923669 -1 -2 0
1370 2 4.22454797466471 10.462741029640092 0.6649972317999958 2 1 1
836 1 4.592384492625856 7.820147981386903 1.4957409423367118 -2 2 0
880 3 5.916615722478602 6.745597425039407 3.6083428390344934 -3 0 0
1988 3 7.682303362395265 8.399177696019729 1.1446684528673228 -1 0 0
1596 3 8.679876879491253 9.487110692620998 5.029798583882403 -2 0 1
2379 3 10.487470597957792 8.780868020893768 1.0092983821347379 6 2 1
1816 1 7.789125039083865 9.510080302980976 2.8114956730054668 2 0 -1
1829 1 10.707642518896614 8.997945308257796 3.3075633022981337 0 1 1
516 1 9.129815743729448 10.148855678112486 44.6632324541243 3 2 -1
1212 1 11.127978321708769 6.026574691333511 2.0970835607767557 -2 -1 1
1585 3 12.79671021270972 10.982085432173662 2.2081438831879567 0 -1 -1
1685 3 16.41808520714265 7.087162683178806 0.17787917730090305 -2 3 -1
339 1 14.482447948538542 9.298011311351853 1.6150141611197464 -3 -1 1
1054 2 17.412191113318038 12.044194567757913 3.3810798928264045 1 3 0
15 1 19.518313367039333 10.690957796144392 3.255613100411175 3 2 0
433 1 18.517547668633444 8.107867049635322 3.6934584683070173 0 2 1
838 1 21.70509200300067 9.357987637283985 0.7672964880907811 -3 0 1
46 1 17.527574690153656 8.933135504798852 0.8508592064301712 -3 0 2
2351 2 21.689997611921914 10.813067891190764 44.9631941274483 -1 1 2
57 2 17.148491322069063 8.571867545900215 2.951113692446544 1 -2 1
996 3 19.78402827235632 8.224839983239738 1.8685674665213174 2 0 0
58 2 18.695060643454926 8.600008739784666 44.37730769649937 1 -2 2
1722 1 0.22189204439985455 14.325768005225251 0.276228342544826 -1 1 0
1137 1 22.013619732627472 11.511742799846402 2.400708704014293 -2 2 2
1956 2 22.398943470973936 13.293143942770543 1.7480167423733182 0 1 0
786 3 6.140501996250255 14.17780154865409 1.9234197431497955 2 1 1
547 1 4.958569837095947 11.730841398194379 1.8617026564706696 3 0 1
2310 1 7.735577595445317 15.921684253603583 2.2462925759191577 -1 0 0
308 1 2.0525701623532258 13.308932240220862 2.0150269647346852 2 0 -1
2164 2 7.485227499739812 12.272573103729679 4.590583600617285 0 0 1
199 3 6.787272429530382 11.206043397838222 0.9683663947338303 -1 -1 2
1110 1 8.138974608098515 12.152496446575304 2.8322597593082306 0 0 1
1073 2 9.169521894914029 10.642493428516818 2.6515447885953334 -3 0 0
353 2 13.34752383431753 16.349840608955482 3.5861556343587058 0 1 1
326 1 10.645155008096841 11.8442433612046 1.6233963468278207 -1 -1 -1
1537 1 14.026195716192587 12.08002621190863 0.2931114035724922 -1 0 0
1199 3 12.542660677138372 13.499572268876669 1.006187473727452 2 1 1
1415 1 14.242552099445804 12.379202420049205 3.8600673528288576 1 0 2
1396 3 15.652560105249266 10.60924711321523 0.20552263462821915 0 0 0
105 1 15.53215553172073 14.799750639567906 1.695272271780692 -2 -2 0
846 1 16.824468433099813 11.944951003949674 1.7996556695708683 -2 -1 1
698 3 17.67659886671096 14.743461365796083 1.4536171444024562 1 0 0
765 2 14.634328595324417 14.239423456826236 3.2621480036961117 -3 3 0
2244 1 20.763606629276467 12.37429075668498 0.2407964174621908 -4 -2 1
658 2 20.10802102551386 12.112383953240435 2.104621726016218 -2 2 0
1687 3 21.73254152208594 12.487776528946242 4.553404944487122 -1 -2 0
49 1 19.460910307752783 13.926198999333783 2.56519348638465 -2 1 -1
857 2 1.9816725918282134 14.222907387057854 44.98689436855254 -1 0 -1
149 1 4.247174517531556 15.949303331061671 2.2563119111928946 1 0 -1
2148 1 1.171043931727388 17.687811665920123 1.7990841244443847 0 1 0
1991 3 1.4864176406328835 15.458650113650279 2.343840217333849 2 -1 1
344 1 2.6789052607333472 15.975007278400746 4.28996620239267 0 1 1
2084 3 6.491347598314869 17.890191034672622 2.2132845188021304 0 0 2
1445 1 5.996556835960258 17.148469285252748 4.650661812360509 3 1 -1
491 3 3.765982728751395 13.921357709414513 3.4566047321226216 1 0 1
610 1 9.599737601935303 15.028002614094778 3.884397584611091 -1 0 0
1621 1 10.44452896816066 14.474766083188175 0.8443197226805784 0 1 0
2062 2 9.534066035645305 13.180196719453823 1.9753431281522225 0 1 -2
177 3 10.76977048282209 16.321265758881808 2.1036905141448 -1 0 1
963 2 11.347507560187456 15.196965104509013 44.44409191527267 2 2 -1
833 1 12.978587703035704 15.18360549068754 2.30502576612461 0 0 0
2296 3 15.6643916517576 13.914210171567149 44.754446692538906 1 0 0
544 1 15.039527849516844 17.81506758201083 44.907819987358046 -1 1 -2
1563 2 16.60250387755965 17.776719809676507 1.6252806254252974 2 -1 1
513 1 18.32526417835971 16.875399934334215 2.5298313609928074 -2 -2 0
1429 1 14.791046171478747 17.43920664695806 2.4234608191591316 -1 -3 0
157 2 19.155644922987317 17.539244833068246 1.220633072075768 4 0 0
997 3 20.85048458561176 15.833460748966212 2.7996911712176864 -2 -4 0
1639 1 20.36597835395648 19.502494786034603 1.228731732302596 -2 2 0
1805 1 21.278672900365063 17.894293120366033 4.27983471080648 -3 1 0
1144 1 20.84181347169177 16.81026662357172 0.5877935732670585 1 1 0
1253 2 4.272741042527715 16.794343105785615 3.726492075740909 -2 0 0
1845 1 0.9997623039045167 20.724485486691723 2.1429698617528983 -3 0 2
1273 2 2.4154677146840298 21.345339915017142 5.709954629549536 -1 1 1
108 1 4.425731284817577 21.117812430892847 1.610454805683736 1 1 -1
1501 1 3.909982742045322 18.374268424333767 4.104147705011233 -1 -1 0
1994 3 3.107996336630925 19.283197181468537 2.143219048714135 0 1 1
1331 1 4.653812610478232 18.302058596639217 1.1991912117862362 0 0 -1
659 2 8.264724177901833 19.84116062353057 0.2870986633747555 3 -1 0
871 2 5.152263430962297 21.21155269465884 3.5084036337687983 5 1 1
2304 1 6.494033994341992 20.21764096403412 4.176678097231425 0 0 2
1566 2 4.601139760009816 19.849054087479573 0.3826196498806116 0 -3 -1
1573 2 8.227318624096496 21.222952464395494 3.430759538411867 3 0 1
1747 1 9.44066186833819 19.047363999897403 2.7234294920490885 -1 1 0
1783 3 10.296614459738814 23.448742542516786 2.154217045974743 -1 -1 1
384 3 11.006329617281844 20.50950643928422 0.8017389438029995 1 -1 -1
1345 1 12.301124312752899 18.815589797063677 1.9368452430012812 4 -1 0
122 1 8.717096923947846 21.182757167943564 44.73142117333093 0 1 0
1003 1 11.716780918732857 21.58425268124846 2.7472967154384724 1 0 1
1940 1 16.839940002918727 19.512074497116945 2.547577649986704 5 0 0
148 1 18.760966245142175 22.56562563712535 2.3249865615070164 -5 -1 1
1663 2 13.717049793606593 20.525699529166904 43.24214554462677 -1 0 0
1248 1 17.559970668562208 17.86215711550201 0.2735744139525877 0 0 0
1676 3 22.422463539307653 18.99461839885808 2.7104154809207377 2 -1 0
586 3 21.26157860739042 21.81108558405978 1.2095973476826496 -1 0 -1
218 1 0.17972874462721639 21.187191010512784 43.937390714112624 0 0 -1
2040 1 0.5319837785052682 21.232346213889127 5.453287082030088 -1 0 1
1886 3 1.2716381352697481 23.325610151359143 5.013080803494941 -4 0 1
823 1 2.3813177924963584 23.76405697081428 2.1723977106079686 -3 -1 2
958 2 3.840384293290876 22.838775107031104 1.851442772480626 3 -2 0
28 1 4.877216291454364 24.02832341077761 0.7695850090543691 2 0 0
2297 3 6.7320355070892415 22.576935651126405 1.4307970089380881 1 2 -1
528 1 5.514495728908158 23.24222348263901 3.510421157777474 -1 -2 1
348 1 8.565415287415158 22.45221124404365 2.482220519690299 -3 -1 0
2073 2 8.225372474987635 24.09721845671824 3.8647543765862338 -2 0 2
222 1 9.838141234426246 24.428590095252858 4.400438105532969 -3 0 1
2015 1 7.433763825541815 25.188964806632402 2.4494989708204864 1 0 0
2376 3 8.91922731885412 23.493737856681122 43.82354387961878 0 -1 0
1721 1 10.95980936157548 23.182221662836636 44.70232694549501 2 -1 0
189 3 13.653737249704898 22.092173237116757 1.5478683073350399 1 -3 1
597 3 14.428886902122537 25.01589776238489 3.5707550046333747 0 0 -1
899 3 10.91709094474161 26.32738643811565 2.152134217320204 -1 -1 0
14 1 12.497013452807405 24.53175402688706 1.659017203936926 -2 -2 0
85 3 14.3861098244993 24.879340635575872 0.16737471703836662 3 0 -1
1645 1 14.927858568737605 21.369150041106348 44.56923011825905 -2 2 -1
2076 3 17.285340326324118 23.555300543680918 44.98711558376323 1 0 -1
1387 3 17.197328609632475 21.983160993855662 42.192878498450455 -2 -1 -1
2017 1 15.759131921796191 23.93223590768276 1.691242990262981 4 0 1
1815 1 18.4985170477179 24.867198709684725 44.3719894987839 1 -1 0
343 1 21.32700644188821 22.61893745286877 3.2001549892371246 -3 0 1
1959 2 17.05772982203694 22.46978731068599 2.5368182099671004 0 -1 0
1857 2 1.081094070008984 22.506414835888492 1.861236315137468 -3 -1 1
2227 1 22.167434462162248 26.228126489951396 1.0407566662510859 -2 0 2
1855 2 19.786307152525968 23.42200965604155 3.455165416478007 4 0 2
1552 2 21.80338412778159 24.803226969657917 2.3214573643769643 0 -2 0
1122 1 0.10599064027074877 25.35891334118289 43.53951159290997 0 0 -2
1236 1 0.3391237133094296 25.399840539093702 3.8495826617767634 1 1 1
1487 3 2.294753245704711 25.931943990051742 2.593178708312796 0 0 0
382 3 5.2570196130010745 25.89957753788953 0.6131274388231767 4 -3 -1
650 1 4.458746389946689 26.697950321233773 2.4816437881694524 1 -1 0
1561 2 5.794723296676672 28.06476320692141 2.8943823496091 2 2 0
744 1 6.975587147883895 28.711870513347936 1.880039236250255 0 0 0
632 1 4.295256176398087 29.339250895923836 1.9161446782162712 1 -1 1
313 1 1.90327235010908 27.086788170032968 0.6437524658574574 -2 0 2
2279 3 8.186725800660307 26.69816577173004 1.3139465030737856 1 -1 0
1636 1 12.249046093411348 30.41852413219717 2.9954243728845666 -1 0 0
288 3 12.835080198738694 28.30240616518411 5.175366919497711 4 -1 0
1520 1 12.158323358769774 26.957463210670205 0.27493953027568746 3 1 -1
1982 3 17.499687009113522 25.934161040884643 2.306571741262431 2 -4 0
1794 3 13.564447623287666 28.116932812486404 1.6880617799112279 0 -1 1
612 1 15.296675874564867 27.288194605976578 0.04533575448183468 1 -1 0
107 1 18.325009727315656 27.997855774107844 0.7903407379254299 1 -1 1
1626 1 15.30203887014012 29.70093525047427 1.937551241080954 -2 -1 1
200 3 20.235825568505092 26.857661993481543 0.6174950922973306 0 0 1
84 3 22.45482631758215 27.70633781709432 4.128150153701934 -2 -2 0
428 1 19.901888325024423 25.063694241998114 2.28715468276674 -3 -2 0
1202 1 21.62922348661602 29.195096043485243 1.001805389678622 1 0 1
26 1 1.3837276146148612 30.829998909470568 2.165189321078739 0 -2 0
1068 2 2.7697395923632633 28.404663992671914 1.8028194936023125 0 -2 3
91 3 0.11713406914323311 31.18373882372336 0.1784681523837133 0 -2 0
637 1 21.746240592924277 30.817567598929934 4.491036489807827 1 0 0
1016 1 2.600566929772402 32.352483076930234 44.86950038814361 0 1 -1
196 3 3.524404134690622 30.9794400696893 2.5097591978294256 0 -3 0
930 1 6.3877022037430695 31.586028417947194 1.9933458997234916 1 -1 1
1775 2 2.6297178176654215 30.62530102906419 44.002306199840326 2 -1 0
1785 3 10.804189541337605 31.876398012324987 4.333915738772673 2 0 1
309 1 10.596543865929572 31.57756269695461 0.683349636745463 -1 0 -1
453 2 6.829836013492136 32.344498877015575 0.1834909084472756 2 1 -1
2276 3 9.093251937159689 30.168069622520534 1.0182081786858994 0 0 1
1341 1 13.506998316162589 32.197230347617 1.037264153592359 0 -2 1
2053 2 12.261540175108408 0.7610834110521344 3.6903246214853493 -1 0 1
362 2 11.950166900320136 30.88215702479509 1.3074468411492934 1 0 0
1500 3 14.404466669380325 31.366213010365474 3.111319577228549 2 -1 1
883 3 19.2524870189681 32.4843197637101 0.960040583374985 2 0 0
1995 3 17.524334263767116 30.45041922657533 2.055754598247771 3 0 1
917 1 17.257971554292663 31.970853943149336 0.7964086107719389 2 1 1
652 2 21.047607321335466 30.919587460090714 2.662015925694198 -4 -2 1
435 1 21.17977393353683 32.28924582276558 1.0925628867015893 1 0 -1
2048 1 19.293751670591742 30.481915024616512 3.37142937980253 2 0 1
1881 3 20.12386852064702 29.534633370292095 44.39541358903294 -2 2 -1
310 1 1.606584278284791 3.0852921861124503 3.4334254735861927 1 0 1
1195 3 3.603771208866242 33.10295754078443 5.2561678292206135 -3 0 -1
792 3 2.848949825388179 2.863502818120019 5.9376974055623455 0 0 0
1625 1 7.018521529741756 3.0657403496047526 5.3671784236050994 0 -1 1
475 2 6.203023995257569 2.368038316002618 4.296008257588544 -1 1 -1
2314 1 4.632696132777316 1.4344846880032736 5.188645608507709 0 -1 1
1669 2 5.462341071872777 4.181330712163793 8.402212518837123 -2 1 1
2013 1 7.420128818000769 0.1001932886472491 7.20461795815968 -1 1 1
48 1 9.685206885761245 3.6623163831337258 4.163604623313214 0 1 1
68 2 7.5610004753057 1.947265210870323 6.798477678569537 2 1 1
1147 1 9.729895762814644 1.8967101744694088 6.759408059086297 -1 0 0
129 1 8.509242651138148 33.1279562573288 4.59906702265601 0 1 -1
2056 2 7.264696963029769 29.818161589830662 8.511794673188037 3 -1 0
1897 3 10.123533120278914 0.46071601013920965 9.019655404554236 1 2 1
270 2 9.470451319284734 0.4119054589251062 5.677555077666549 -3 -1 1
843 1 12.735991411247198 2.2999307322371267 4.601131909257686 2 1 0
1798 3 11.170378109885759 3.4266943598564557 5.732531705359087 -2 1 1
2153 2 14.731588776528243 33.13325327986142 5.100614248665531 -2 1 -1
1311 1 15.322946166644652 0.4549542187848413 6.582725559851633 2 0 2
1300 3 14.886158360497241 1.8979873023190468 4.212397858808857 2 0 0
2105 1 17.8688785823169 1.6226416374114032 5.2185911609855555 0 1 1
964 2 0.10895705025645129 3.7475405874141625 4.34238433907715 0 0 1
1129 1 21.567433018436542 2.327849505171458 5.000579059860954 2 0 0
1232 1 22.20156850607748 2.7381420888020767 8.373801608367163 -3 -2 1
72 2 0.6572125690819882 1.7571873091536527 4.0917609282290055 -1 0 -1
1090 3 20.711252777301265 2.685894579976903 6.843369456837314 -2 1 -1
898 3 2.7641815247332078 5.891215566127632 6.7807858762842725 2 -1 1
2010 1 1.0030483665580492 3.7453964070612544 5.948438853510432 2 0 0
1447 1 4.139631950339999 6.707313392746767 4.943743773196638 0 -1 1
1043 1 4.362051542150105 4.843790559561191 7.042985872019397 -1 0 1
2192 3 6.525617357969566 8.304551809107076 8.19279025394924 3 0 0
220 1 7.0256082814050105 8.417134917559133 6.130183942159051 0 0 0
2097 3 9.062049449428674 5.974113358873232 3.282559912624595 1 1 1
2274 2 8.553034241400573 4.137269678233196 5.648909094617102 0 -1 1
1653 2 8.00389628620852 6.272795571046181 9.627433074291634 2 -1 -1
1040 1 7.793794913847452 6.07432900080555 4.870854900463449 3 2 1
1449 1 6.6664776553057425 5.448933081585418 8.587579291560008 0 0 0
525 1 12.11973217450085 5.176146827379846 4.987518709865009 3 2 -1
1059 2 10.818416917685388 5.909595679104774 6.4837162306922895 2 -1 1
1356 2 13.243593885734292 4.37081306582562 4.07566545167372 -1 0 2
1528 1 14.366721761182573 6.469643601465451 6.7822191775985585 0 0 1
2092 3 16.650143491602844 3.726363217366812 3.5508290469012773 1 2 1
2328 1 15.588847364008359 3.340169729637854 5.262666176323489 1 2 1
13 1 21.868769872024654 5.383529936851771 3.7183885313830403 -3 0 0
364 2 19.355248401260948 5.960490536499259 6.899068118585288 2 1 1
1463 2 17.913338228651927 6.29047830980269 3.7199166808896376 -1 1 1
1773 2 21.923158775662504 6.960954360632343 4.70734275615834 -1 -2 1
1835 1 3.634250899884106 9.85011112833151 6.058849847285919 0 -1 0
473 2 4.330232537538558 11.01565803677011 9.398390256513032 0 2 0
194 3 0.39517553215776036 8.872882776144264 6.7641861007364446 0 0 0
768 2 2.8988205878002042 8.017766574963188 4.893987190156322 2 1 0
626 1 6.273000824139521 11.28741822163309 5.7577922274714615 0 0 0
557 2 5.384152400506808 9.507472215609374 6.332607561548459 0 1 -2
1301 1 4.399193914080876 7.8603810359048465 8.004295399490042 1 0 1
643 1 10.183816663145247 7.5723265433137446 5.682743914989071 0 0 0
662 2 8.810684274095697 7.03117290157514 6.610623188133493 0 1 1
1485 3 11.01402159877911 8.92954105799415 7.609624311460965 1 0 1
1281 3 12.164927178364717 7.734269350857676 4.3560592435579455 -4 0 0
1800 3 15.50029756152246 8.55549455199724 5.791868076155054 2 1 0
738 1 13.088347542954368 9.022739036636882 6.444900464928376 0 1 0
1647 1 15.952282486470635 7.01790924801997 3.5329150672252845 -1 -2 0
1723 1 13.704624520313104 9.278861664488158 3.6526672265387954 3 0 -2
858 2 14.283330417070044 7.958036390622515 2.6194480703780414 1 1 2
73 2 15.073513080317396 10.395174241139932 3.506058389141519 -1 -1 0
1405 1 20.61113735706315 7.378213619364812 6.3385595074152485 3 2 0
1910 1 21.218018247746496 10.248631746352464 5.524116551760347 0 2 0
1024 1 18.197699290049457 11.329858472419954 6.843663871310942 0 1 1
1249 1 22.238026513410148 14.478310385574328 3.571663032752666 1 -1 -1
582 3 1.8239014276835062 14.10669783214206 5.383263487651028 4 1 -1
2122 1 0.5984531282067643 11.95159406418597 5.994848773246692 -2 0 1
847 1 3.3415725693888345 12.451122822541764 4.928256412165373 1 0 -1
890 3 4.862906865639776 11.013737686556368 3.9454827611542433 0 0 0
2033 1 5.756936377507317 13.55031739146306 3.891985280708819 1 -1 -1
955 2 8.021272029909607 11.798506204527078 7.260644739500688 3 1 0
35 1 9.90391445356091 11.263468694857231 4.9072623776390945 1 -2 0
2262 2 10.087002498745848 13.350907537688059 4.872722441857285 -1 1 2
2303 1 8.382084544528247 13.277276282247028 6.0541487101083975 3 0 0
1204 1 11.473452007509426 13.443167443395094 6.086569917290761 1 -3 1
889 3 13.43939633236624 13.331157785376945 5.991406387493109 2 -1 1
2305 1 14.283939220572428 15.265664583589539 5.009717106935081 1 -1 0
1699 3 12.093616212851442 10.4763076713459 5.205060959226706 -2 0 -1
2208 1 12.849344066006696 11.948103383329737 7.694421614876547 -4 1 1
948 1 16.803676121737098 10.425653277376076 4.250268973137231 -5 1 0
701 1 16.995980626304924 13.92811250023087 4.210964053057892 0 0 1
1963 2 15.934714571656047 14.62536822921993 5.463474325839174 -3 -1 -1
1087 3 16.696661259705536 12.265306925424653 8.062538170971013 -2 1 1
261 2 19.098193215042517 14.22352043247678 4.226767235686027 0 -2 1
112 1 19.754317253871424 12.936058984850943 5.492692387745929 -1 0 0
1172 2 19.359764624176425 11.239326874344831 5.285959154859728 -1 2 0
1488 3 1.7108124947597756 18.189972847474884 5.06511691770338 -2 0 0
748 1 1.0616567855033212 15.64046205341013 6.695506476828413 -1 2 1
2199 3 4.885735716323786 12.552417048081084 6.764271346337641 0 -1 2
720 1 6.961107537441828 15.980602977541539 7.904954967236481 -2 -1 1
1489 3 5.3080250012710275 19.08933891418533 5.625962141630101 -3 1 0
1688 3 11.112552376333271 19.570763653690015 3.663778568337408 1 0 -1
1697 3 7.43422773071494 15.712840437839045 4.2853170491314785 0 0 1
1633 1 8.930848771682983 17.25611055750982 6.263152086216232 -2 1 1
163 2 7.860083761590941 17.597001631276132 7.791966396643441 1 -5 0
2023 1 12.427006501054478 17.320143643569445 4.678669013094046 -1 0 1
2388 3 13.467111873006289 16.77718090932754 0.8653037755198073 -1 -1 1
1418 1 16.181040671012767 16.6742011736546 6.320436933109214 2 0 1
276 3 16.085878384356057 17.91899500312056 4.358718294970115 -3 -1 1
1082 3 21.631722392127262 15.010364719114154 5.921798015047115 -4 -1 0
135 1 20.15661586499529 18.615787933661085 7.193684850035032 0 0 0
1465 2 19.58596828541263 17.521882731838772 4.16542267010838 -4 0 1
18 1 19.23560358837249 15.846480550347442 5.028688064183625 1 -2 0
588 3 18.65543868004045 14.345464161810117 7.0251107555751595 -1 3 -1
1083 3 17.953785702184245 17.975781552049288 6.855400446336594 1 1 -1
1680 3 0.7196836838492268 22.549350849374154 7.455510929135508 0 -3 1
2335 1 3.1748002408872007 21.069773887782503 4.137669031486199 0 1 0
2143 1 0.6634695210721656 18.46241718408261 6.7743799485547544 0 0 2
1435 1 5.565958383237454 21.790495864883667 6.796673429845825 0 0 1
1020 1 9.33684153377611 21.3047548984282 4.845658506366571 -1 2 1
2373 2 13.730433211171656 19.846581596098705 4.932558286792165 1 -1 1
396 3 7.972783080594265 18.415309749518656 4.7210612357467205 -1 -1 0
1416 1 11.608591771668372 20.41103288032881 5.770802824049818 1 0 0
564 2 10.156511402374015 21.023551060049584 6.49472266139744 1 2 0
873 2 14.138537882965942 18.941330895615195 2.0219686005427238 0 -2 -1
1448 1 14.253904773116973 20.24597752059105 3.177170752356647 -1 1 1
187 3 14.008316871735767 16.432410829083903 7.375970550109435 2 0 -1
89 3 12.168143858350641 21.83992516782375 8.314654299026513 -1 -2 -2
949 1 16.857025492562904 21.90620874682218 4.161282798422465 -1 -1 2
700 3 19.255497755249262 20.551445219841604 2.9012869632501994 -2 -1 0
1208 1 18.626194569545625 19.119221100305694 4.616265573408083 3 1 0
2247 1 15.19065602475002 19.42894854691474 5.799727668540919 0 0 -1
351 2 16.016719976511745 20.57289708440165 3.674331437527649 0 -1 -1
1005 1 17.132553097402006 22.275312023459023 7.407844824924362 -1 -1 0
1673 2 21.4567925541348 19.55544319564754 6.315740726326336 1 2 0
2196 3 17.945238232035376 20.762513083795454 6.187902768965799 -1 1 2
1363 2 21.608746500649556 22.3181583154696 5.242010683313713 -2 3 0
2207 1 19.988787409511485 21.802459795993528 5.592810769416032 -1 -2 1
935 1 3.6599542879195726 25.249725540947924 5.1866605993919555 0 0 0
394 3 4.40563961465689 23.04645914254956 5.530416973652937 1 0 0
1423 1 21.96822579266669 24.014694545748046 6.2116124164184505 -4 2 -1
24 1 2.6447996766320223 22.901551332631445 6.553394434612141 2 0 0
766 2 4.020291731380781 28.373156424057626 8.603802172161824 -2 0 0
2100 3 7.376302188027749 21.66416770254263 6.117711989148079 3 1 1
387 3 5.481867047258766 25.198147982275735 3.892579403849425 1 1 -1
425 1 7.180087191399824 24.293498785505815 6.1535778391844165 4 0 0
1975 2 7.551324438467293 25.941340791265105 6.605118621136797 -2 0 1
427 1 4.542618536028173 28.151261535974964 6.843169911273081 -3 0 0
991 3 10.613837326788564 26.471633255307182 5.736129242406742 0 1 1
2134 1 10.417287090936496 22.749427854217984 6.93940527112129 0 0 0
900 3 11.240382905248225 22.7639584799866 4.530492849018903 0 1 0
2342 1 13.214446719997554 23.106340120592918 4.9010491518937975 1 -2 0
1480 3 12.784433754701093 24.282919469438117 6.373534943260869 1 -1 1
783 3 15.421602159960035 22.454860089755844 5.998969966507696 -2 -2 0
2128 1 15.62295365134594 24.8012271698278 5.77723094236315 1 3 1
1700 3 19.724548928017356 23.87268889929868 6.61325345585756 -4 2 1
1243 1 18.83270169853623 24.46862930558034 4.759996054851025 -1 -1 1
2136 1 2.054912573816439 28.335146318315925 3.6075443718846434 1 -2 1
688 3 1.7397238065530636 25.986947371629206 6.05005767837032 3 -1 -1
618 1 1.4819321583464289 28.47183726517023 6.468148343348704 0 -2 0
2354 2 22.42427375736938 28.656181885181773 7.844040131306287 -1 1 1
1882 3 3.11973736638614 28.843883901149088 5.309133467446276 0 0 0
606 1 7.0282837779623915 27.373938605744872 4.938122616643315 3 -2 0
2184 3 8.34783578319999 29.099644470024767 4.662219180589091 3 0 2
911 1 10.461471835420507 28.32365521051883 4.5746083677819005 -1 0 1
1472 2 10.71382416737426 29.337836240150178 2.9507918827015063 -4 -1 1
775 2 10.720597274362467 30.15104858656248 6.900641621345845 -1 0 1
2078 3 14.836460130976533 28.975119443462095 7.653092223774118 -2 -2 1
1707 1 12.476262651115622 26.44787239164817 6.420655555122332 0 -1 0
1825 1 13.831231930220818 27.02802275109502 3.355276108876696 -2 0 3
627 1 14.878279984405731 28.528736387259833 5.5044415697012266 0 -1 0
1985 3 16.184016856223828 26.815109863639886 5.8529246938246855 0 -1 1
1474 2 15.550022258473394 28.372036524582423 3.6321331631020515 -4 -1 1
1004 1 17.162298243083406 27.496095969473398 3.912473800177756 0 -2 1
1861 2 19.299330937657945 28.65277660987156 3.5623319739729165 2 -1 3
1836 1 20.42008569223974 27.967217462777445 4.748609985666748 2 1 0
787 3 20.677680126267518 25.46505312532288 5.070720378666419 -2 -1 1
1327 1 21.77255361474626 27.02198337062068 7.247519497203052 -1 -1 1
1973 2 1.0005437270621804 30.017105708926465 4.159323167156783 1 0 0
192 3 2.232818753143795 30.80951258623028 7.009823844569068 1 -2 -1
1441 1 3.034596284128142 30.93597493690115 4.8350001089671295 -2 1 0
1602 1 1.388735904967244 0.8276806305097919 5.59306866182946 0 2 0
649 1 5.732275507629851 29.97047576128737 4.571955608144705 1 -1 1
487 3 6.395675129336051 33.22567068820215 3.627995415401962 1 0 0
638 1 6.5329617877926305 30.777198956518934 7.17871663029392 0 -1 0
1205 1 9.217419922191702 30.542522723068192 3.1666947965178314 1 -1 1
1971 2 6.974506296809804 30.34600715676887 3.097211349742759 -1 0 1
729 1 8.98851786997205 29.679577865228566 6.525164364279916 0 -2 0
100 3 8.139118388697284 32.19641244256768 6.506687814252231 0 -2 -1
733 1 10.412319881505047 32.7103558923559 6.55350935327685 -2 -2 0
1901 1 12.77525553270022 32.83326136914728 4.954901323812697 0 -1 0
645 1 12.375818178670796 30.454608764099873 6.658798439114811 1 1 0
95 3 12.164977632137118 0.09618989035798568 6.827414904856197 -3 1 0
1632 1 16.500869547460873 30.43199071734674 8.248676878939953 -3 1 1
974 2 13.717199393502659 31.551659170395062 6.610442917707814 2 -1 0
2231 1 15.0692953928578 31.274943267587783 5.699965588900481 2 0 2
1091 3 18.04060464011171 33.520344831869544 4.64550032608132 1 -1 1
1278 3 17.144477101164046 29.786382028976764 5.845658728189 1 -1 0
1503 1 18.167058195537944 31.749090504179016 6.2519473952775755 -1 -3 1
490 3 22.039885874118095 32.93116463380408 4.886007729600673 -2 0 0
730 1 22.26573015215394 3.761579972973865 10.873369450296689 -1 0 -1
1160 2 2.5942411179813614 0.24526267502780538 9.247472444805458 0 1 0
349 1 2.9590361788004826 2.1149194504353743 7.956940620443478 1 3 -1
1796 3 0.9235110314087169 1.4404422210166812 7.681306766396 0 1 0
118 1 4.507071839277176 0.1616516478344903 9.410131408722874 2 1 -1
2370 2 20.751835722811336 3.818032752670257 11.928821835421425 1 -1 0
369 2 4.270107970771872 1.969257337541513 9.412793611394848 1 1 0
1908 1 4.448843471551207 3.4920484214971736 10.075824070660993 2 0 0
1381 3 7.174645769789297 0.3008149888943187 10.077092498884376 1 0 -1
312 1 6.5200835637727055 2.5020338808914095 8.103601684880088 1 2 0
437 1 7.351272854675239 2.6737483224053995 11.724952255855255 -2 2 0
799 3 8.307612371772086 3.257576183373813 8.981272454012236 3 2 0
708 1 10.013004770727878 2.242645498169197 10.446866490505363 0 0 -1
1062 2 14.777640840344446 2.8329951368725945 6.970819557271984 1 1 0
2018 1 12.348206070286091 1.7523891619502858 7.907366394731329 -3 0 2