#FLiNa 100 atoms 2,1,1 ratios

100  atoms
0  bonds
0  angles
0  dihedrals
0  impropers

3  atom types
0  bond types
0  angle types
0  dihedral types
0  improper types

0.0 10.977036026870316 xlo xhi
0.0 10.977036026870316 ylo yhi
0.0 10.977036026870316 zlo zhi

Masses

1 18.998403163    # F
2 6.938           # Li
3 22.989769       # Na

Atoms # 

 1 1 -1.45 10.895 -17.362
2 1 -5.154 9.887 12.021
3 1 -5.646 7.294 3.169
4 1 15.026 1.966 19.928
5 1 22.763 8.549 24.011
6 1 10.336 7.431 8.038
7 1 6.577 9.411 -6.249
8 1 17.401 23.856 -10.98 
9 1 -4.031 1 6.688
10 1 16.561 -12.201 -14.115
11 1 -7.447 21.584 2.858
12 1 2.989 -11.334 -11.546
13 1 -8.134 8.495 8.1 
14 1 18.434 -17.461 6.848
15 1 -18.231 2.923 -10.713
16 1 -3.019 7.241 -12.279
17 1 12.437 12.269 15.886
18 1 -2.636 19.25 12.58 
19 1 11.255 1.793 19.519
20 1 1.898 5.29 20.246
21 1 -0.633 17.267 0.157
22 1 31.219 35.612 16.051
23 1 -8.442 0.313 29.477
24 1 29.377 15.831 -0.749
25 1 2.838 -7.88 15.115
26 1 8.059 9.96 20.361
27 1 4.816 4.646 -1.908
28 1 -3.651 -20.248 -8.152
29 1 12.809 -4.856 17.134
30 1 0.965 12.405 23.711
31 1 4.566 -9.207 -5.419
32 1 35.863 5.6 14.148
33 1 4.649 6.266 5.63 
34 1 6.289 14.638 4.063
35 1 -10.51 -1.012 17.974
36 1 10.317 15.088 9.313
37 1 8.332 -13.548 -4.157
38 1 9.123 22.001 -10.14 
39 1 -0.491 4.247 6.975
40 1 3.609 -1.825 -5.414
41 1 5.569 -6.152 -9.471
42 1 22.329 26.588 15.142
43 1 11.822 4.195 -9.271
44 1 -1.869 0.706 7.893
45 1 7.408 -4.919 4.749
46 1 -18.948 6.823 22.254
47 1 8.506 -27.797 23.994
48 1 -11.337 19.257 4.958
49 1 13.484 3.335 -3.08 
50 1 5.573 -3.836 -2.852
51 2 13.144 4.83 15.482
52 2 0.429 -16.277 -0.962
53 2 -13.818 7.929 -27.923
54 2 5.511 25.428 -10.527
55 2 6.751 6.132 13.445
56 2 5.931 -3.456 15.841
57 2 3.628 3.54 -1.502
58 2 -13.937 25.333 3.623
59 2 -10.025 22.655 7.109
60 2 12.915 23.602 -1.944
61 2 -18.218 1.814 7.125
62 2 20.743 11.171 -0.972
63 2 5.858 6.051 9.671
64 2 -3.655 9.148 -10.441
65 2 21.439 4.056 13.603
66 2 4.054 6.329 1.588
67 2 22.17 3.16 16.522
68 2 15.017 -12.689 13.104
69 2 22.098 10.102 4.94 
70 2 13.53 40.172 9.476
71 2 15.661 -13.636 17.971
72 2 -4.722 23.825 -16.772
73 2 16.09 21.404 -5.186
74 2 18.637 -20.877 0.961
75 2 4.366 -1.363 -23.831
76 2 19.146 21.232 -3.468
77 2 12.102 18.193 -3.647
78 2 -13.419 -15.778 0.471
79 2 1.833 24.822 -9.679
80 2 7.02 8.62 8.648
81 2 -0.902 19.875 17.938
82 2 9.797 -8.319 19.114
83 2 -13.421 1.291 17.173
84 2 28.266 5.019 5.522
85 2 11.93 6.676 1.298
86 2 3.088 1.619 -6.291
87 2 4.423 3.729 -7.704
88 2 13.235 -1.397 -4.229
89 2 0.824 15.211 -2.627
90 2 1.567 10.404 -9.521
91 3 -1.596 5.502 -5.44 
92 3 2.925 -3.664 15.539
93 3 17.106 13.986 -13.682
94 3 -28.192 11.663 0.023
95 3 19.587 -5.277 -2.68 
96 3 32.027 7.542 13.781
97 3 -11.415 12.346 14.428
98 3 14.701 16.524 18.465
99 3 -12.939 -29.738 10.954
100 3 -4.628 -0.29 3.24 