LAMMPS (29 Sep 2021 - Update 2)
OMP_NUM_THREADS environment is not set. Defaulting to 1 thread. (src/comm.cpp:98)
  using 1 OpenMP thread(s) per MPI task
# lmp -in therm.lammps
# Muller-Plathe method via fix thermal_conductivity

# conda activate nequip_cuda10.1
# export CUDA_VISIBLE_DEVICES=2
#   lmp -in run_therm_1400
# nohup lmp -in run_therm_1400 > therm_1400_job.out #job =8154
# 1) Initialization
units metal
dimension 3
newton off on
atom_style atomic
boundary p p p



# 2) System definition
read_data	FLiNa_41_1400_100_startpoint.lammps
Reading data file ...
  orthogonal box = (0.0000000 0.0000000 0.0000000) to (10.977036 10.977036 10.977036)
  1 by 1 by 1 MPI processor grid
WARNING: Atom style in data file differs from currently defined atom style (src/read_data.cpp:516)
  reading atoms ...
  100 atoms
  read_data CPU = 0.001 seconds


# 3) Simulation settings
pair_style	nequip
pair_coeff	* * FLiNa_f_pyt10.2 F Li Na #Li F Na

# 4) NPT:
replicate 2 3 4
Replicating atoms ...
  orthogonal box = (0.0000000 0.0000000 0.0000000) to (21.954072 32.931108 43.908144)
  1 by 1 by 1 MPI processor grid
  2400 atoms
  replicate CPU = 0.001 seconds

# thermo 1
# minimize 1.00e-9 1.0e-9 1000000 10000000
# run 100


timestep .001 # fetmoseconds
variable Tsim equal 1400 # Kelvin
velocity all create ${Tsim} 12335
velocity all create 1400 12335

#-------------------------------------------
# 1st equilibration run
fix 1 all nvt temp ${Tsim} ${Tsim} $(100.0*dt)
fix 1 all nvt temp 1400 ${Tsim} $(100.0*dt)
fix 1 all nvt temp 1400 1400 $(100.0*dt)
fix 1 all nvt temp 1400 1400 0.10000000000000000555
thermo          100
run 50000
Neighbor list info ...
  update every 1 steps, delay 10 steps, check yes
  max neighbors/atom: 2000, page size: 100000
  master list distance cutoff = 7
  ghost atom cutoff = 7
  binsize = 3.5, bins = 7 10 13
  1 neighbor lists, perpetual/occasional/extra = 1 0 0
  (1) pair nequip, perpetual
      attributes: full, newton off
      pair build: full/bin/atomonly
      stencil: full/bin/3d
      bin: standard
Per MPI rank memory allocation (min/avg/max) = 3.992 | 3.992 | 3.992 Mbytes
Step Temp E_pair E_mol TotEng Press 
       0         1400   -10862.664            0   -10428.531    14607.487 
     100    1385.9214   -10862.123            0   -10432.356    14460.592 
     200    1374.5878   -10872.959            0   -10446.706    14342.338 
     300    1400.0817   -10877.849            0    -10443.69     14608.34 
     400     1385.295   -10856.671            0   -10427.098    14454.056 
     500    1434.6398    -10857.69            0   -10412.816    14968.916 
     600    1444.2485   -10866.396            0   -10418.542    15069.172 
     700    1396.1917   -10865.627            0   -10432.675    14567.752 
     800    1405.8995   -10872.642            0   -10436.679    14669.042 
     900    1389.2818   -10864.506            0   -10433.696    14495.655 
    1000    1399.4748   -10860.694            0   -10426.724    14602.007 
    1100    1407.9811   -10854.474            0   -10417.866    14690.761 
    1200    1419.0929   -10852.915            0   -10412.861    14806.701 
    1300    1419.2921   -10856.404            0   -10416.289    14808.779 
    1400    1400.0344    -10865.06            0   -10430.916    14607.846 
    1500    1375.4317   -10862.908            0   -10436.394    14351.143 
    1600    1372.9003   -10851.905            0   -10426.176    14324.731 
    1700    1451.3367   -10860.903            0   -10410.851     15143.13 
    1800    1436.3758   -10859.693            0    -10414.28    14987.029 
    1900    1412.2294    -10860.56            0   -10422.634    14735.087 
    2000    1418.7004   -10868.392            0    -10428.46    14802.606 
    2100    1431.2379    -10869.18            0    -10425.36    14933.421 
    2200    1435.1356   -10853.338            0   -10408.309    14974.089 
    2300    1420.3109   -10847.355            0   -10406.924     14819.41 
    2400    1428.6495   -10864.271            0   -10421.254    14906.414 
    2500    1366.4282   -10854.601            0   -10430.878    14257.201 
    2600    1404.0445   -10861.233            0   -10425.846    14649.687 
    2700    1421.0215   -10855.558            0   -10414.906    14826.824 
    2800    1466.4446    -10867.41            0   -10412.673    15300.765 
    2900     1379.671   -10854.194            0   -10426.365    14395.376 
    3000    1385.4333   -10867.346            0    -10437.73    14455.499 
    3100    1375.9853   -10862.513            0   -10435.826    14356.919 
    3200    1378.7986   -10851.472            0   -10423.913    14386.274 
    3300    1426.3821   -10856.716            0   -10414.402    14882.756 
    3400    1405.7218   -10854.396            0   -10418.489    14667.188 
    3500    1386.4686   -10861.864            0   -10431.927    14466.302 
    3600    1401.1482   -10873.698            0   -10439.209    14619.467 
    3700    1367.6027   -10859.998            0   -10435.911    14269.456 
    3800    1344.8435   -10842.696            0   -10425.667    14031.989 
    3900    1412.4617   -10860.267            0   -10422.269    14737.512 
    4000    1425.3464   -10860.928            0   -10418.935    14871.949 
    4100    1397.4164   -10854.161            0   -10420.829     14580.53 
    4200    1400.7975   -10864.931            0    -10430.55    14615.808 
    4300     1376.584   -10868.634            0   -10441.762    14363.167 
    4400    1352.4666   -10858.842            0   -10439.449    14111.527 
    4500    1402.6167    -10851.83            0   -10416.886     14634.79 
    4600    1410.6368    -10855.79            0   -10418.358    14718.471 
    4700    1416.3014   -10866.254            0   -10427.066    14777.575 
    4800    1379.4824   -10861.087            0   -10433.316    14393.408 
    4900    1424.0582   -10867.429            0   -10425.835    14858.508 
    5000    1434.9778   -10854.531            0   -10409.552    14972.443 
    5100    1410.3633    -10844.46            0   -10407.113    14715.617 
    5200    1414.6765    -10855.07            0   -10416.386     14760.62 
    5300    1399.3549   -10857.303            0    -10423.37    14600.756 
    5400    1414.8651   -10861.618            0   -10422.875    14762.588 
    5500    1399.2045   -10858.336            0   -10424.449    14599.187 
    5600    1404.6363    -10861.24            0   -10425.669    14655.862 
    5700    1357.2695   -10852.411            0   -10431.529    14161.641 
    5800     1391.943   -10861.267            0   -10429.632    14523.421 
    5900    1429.9831   -10867.626            0   -10424.195    14920.328 
    6000    1413.7453   -10854.152            0   -10415.757    14750.905 
    6100    1428.6175   -10855.772            0   -10412.765     14906.08 
    6200    1396.5342   -10858.411            0   -10425.353    14571.325 
    6300    1440.5554   -10885.008            0   -10438.299    15030.639 
    6400    1409.0835   -10874.743            0   -10437.793    14702.264 
    6500    1402.3968   -10863.645            0   -10428.768    14632.495 
    6600    1415.7443   -10856.939            0   -10417.924    14771.762 
    6700    1429.6287    -10860.86            0    -10417.54     14916.63 
    6800    1428.2205   -10866.487            0   -10423.603    14901.938 
    6900    1378.9567   -10860.516            0   -10432.908    14387.923 
    7000     1385.765   -10863.083            0   -10433.364     14458.96 
    7100    1434.3663   -10862.296            0   -10417.506    14966.063 
    7200    1416.3022   -10848.939            0   -10409.751    14777.582 
    7300    1426.2359   -10864.103            0   -10421.834    14881.231 
    7400    1391.8413   -10866.109            0   -10434.506     14522.36 
    7500     1417.571   -10872.866            0   -10433.284    14790.822 
    7600    1396.9554   -10865.595            0   -10432.406     14575.72 
    7700    1378.3253   -10857.061            0   -10429.649    14381.335 
    7800    1435.8741   -10859.161            0   -10413.904    14981.794 
    7900    1430.6655   -10854.074            0   -10410.432    14927.448 
    8000    1394.1646   -10855.875            0   -10423.551    14546.601 
    8100    1390.0547   -10861.467            0   -10430.418    14503.719 
    8200    1378.5342   -10859.535            0   -10432.058    14383.515 
    8300    1386.9495       -10858            0   -10427.914    14471.319 
    8400    1432.8834   -10863.801            0   -10419.471     14950.59 
    8500    1414.8187    -10850.91            0   -10412.182    14762.104 
    8600    1443.8188   -10841.195            0   -10393.474    15064.689 
    8700     1435.636   -10850.049            0   -10404.865     14979.31 
    8800    1406.9297   -10853.914            0   -10417.632    14679.791 
    8900    1383.8648   -10851.881            0   -10422.751    14439.133 
    9000    1387.0319   -10851.329            0   -10421.217    14472.179 
    9100    1445.7552   -10857.217            0   -10408.895    15084.893 
    9200    1400.8161   -10842.658            0   -10408.272    14616.002 
    9300    1359.7937   -10846.698            0   -10425.033    14187.978 
    9400    1385.5113   -10864.804            0   -10435.163    14456.313 
    9500    1400.3465   -10862.675            0   -10428.434    14611.103 
    9600    1397.4908    -10853.22            0   -10419.865    14581.306 
    9700    1421.0461   -10858.491            0   -10417.832    14827.081 
    9800    1412.2877    -10856.08            0   -10418.137    14735.696 
    9900    1391.5465   -10850.233            0   -10418.722    14519.284 
   10000    1430.4111   -10863.143            0   -10419.579    14924.794 
   10100    1416.3844   -10863.024            0   -10423.811     14778.44 
   10200    1403.2684    -10860.02            0   -10424.873    14641.589 
   10300    1382.5907   -10852.139            0   -10423.404     14425.84 
   10400     1416.078    -10854.47            0   -10415.351    14775.243 
   10500    1414.0049   -10849.431            0   -10410.955    14753.613 
   10600    1389.6118   -10850.707            0   -10419.795    14499.097 
   10700    1383.8487   -10860.132            0   -10431.007    14438.966 
   10800    1392.2826   -10863.908            0   -10432.168    14526.964 
   10900         1441   -10869.024            0   -10422.177    15035.278 
   11000    1426.2239   -10851.211            0   -10408.946    14881.105 
   11100    1418.2345   -10851.879            0   -10412.091    14797.745 
   11200    1413.5187   -10860.816            0   -10422.491     14748.54 
   11300    1367.0046   -10850.834            0   -10426.933    14263.216 
   11400    1380.4566   -10855.512            0   -10427.439    14403.573 
   11500    1433.8138   -10869.209            0    -10424.59    14960.298 
   11600    1380.6286   -10859.155            0   -10431.029    14405.367 
   11700    1364.6249   -10867.322            0   -10444.159    14238.386 
   11800    1375.4927   -10872.165            0   -10445.632     14351.78 
   11900    1400.2129   -10864.479            0   -10430.279    14609.709 
   12000    1418.9232   -10857.428            0   -10417.427     14804.93 
   12100     1412.004   -10854.389            0   -10416.533    14732.735 
   12200    1392.8087   -10851.363            0    -10419.46    14532.454 
   12300    1359.9765   -10855.902            0    -10434.18    14189.885 
   12400    1369.1844   -10870.152            0   -10445.575    14285.959 
   12500    1393.9204   -10874.041            0   -10441.793    14544.053 
   12600    1387.8681   -10860.242            0   -10429.871    14480.904 
   12700    1415.7112   -10863.126            0   -10424.121    14771.417 
   12800      1400.72   -10858.339            0   -10423.982    14614.999 
   12900    1437.5128   -10873.305            0   -10427.539    14998.892 
   13000    1345.3174   -10858.412            0   -10441.236    14036.934 
   13100    1361.1857   -10866.311            0   -10444.214    14202.502 
   13200    1427.6768   -10864.674            0   -10421.958    14896.264 
   13300    1432.5006   -10863.279            0   -10419.068    14946.595 
   13400    1379.7695   -10850.257            0   -10422.397    14396.404 
   13500    1384.2657   -10857.846            0   -10428.592    14443.317 
   13600    1372.7021   -10866.617            0   -10440.949    14322.663 
   13700    1372.9493   -10872.347            0   -10446.602    14325.243 
   13800    1396.9661   -10859.867            0   -10426.675    14575.832 
   13900    1416.0497   -10855.679            0   -10416.569    14774.949 
   14000    1403.3005   -10854.885            0   -10419.728    14641.924 
   14100     1414.967   -10870.157            0   -10431.383    14763.651 
   14200    1374.4676   -10860.963            0   -10434.747    14341.084 
   14300    1420.5524   -10859.267            0    -10418.76    14821.929 
   14400    1402.9898   -10845.142            0   -10410.081    14638.682 
   14500    1409.8527   -10849.821            0   -10412.633     14710.29 
   14600    1407.6825   -10856.653            0   -10420.138    14687.646 
   14700    1390.9637   -10866.052            0   -10434.721    14513.203 
   14800    1366.9576   -10867.477            0    -10443.59    14262.725 
   14900    1376.2148   -10864.423            0   -10437.665    14359.314 
   15000    1357.2586   -10850.672            0   -10429.793    14161.527 
   15100    1415.9408   -10859.067            0   -10419.991    14773.812 
   15200    1387.1583   -10844.993            0   -10414.842    14473.498 
   15300    1411.0938   -10857.766            0   -10420.192    14723.239 
   15400    1377.4124   -10859.097            0   -10431.968     14371.81 
   15500    1429.5424   -10873.527            0   -10430.233     14915.73 
   15600    1425.9308   -10869.335            0   -10427.161    14878.047 
   15700    1421.5847   -10864.499            0   -10423.673      14832.7 
   15800    1417.8371   -10862.673            0   -10423.009    14793.598 
   15900    1378.5834   -10863.044            0   -10435.552    14384.028 
   16000    1376.0972   -10868.479            0   -10441.758    14358.088 
   16100    1409.4776   -10868.188            0   -10431.116    14706.375 
   16200    1388.8375   -10854.132            0    -10423.46    14491.018 
   16300    1402.7792   -10856.912            0   -10421.917    14636.485 
   16400    1411.0467   -10858.505            0   -10420.946    14722.747 
   16500    1399.9125   -10856.195            0   -10422.089    14606.574 
   16600    1397.2343    -10858.23            0   -10424.955     14578.63 
   16700    1411.7629   -10863.839            0   -10426.058     14730.22 
   16800    1415.0754   -10857.795            0   -10418.987    14764.782 
   16900    1413.3585   -10850.479            0   -10412.203    14746.869 
   17000     1424.713   -10857.849            0   -10416.052     14865.34 
   17100    1375.9301    -10860.88            0   -10434.211    14356.344 
   17200    1392.4315   -10868.305            0   -10436.519    14528.518 
   17300    1369.0401   -10858.718            0   -10434.185    14284.454 
   17400    1417.1836   -10856.671            0   -10417.209    14786.779 
   17500    1421.3354   -10848.088            0   -10407.339    14830.099 
   17600    1423.1908   -10857.721            0   -10416.396    14849.458 
   17700    1386.8276   -10854.945            0   -10424.897    14470.047 
   17800    1400.9145   -10861.661            0   -10427.244    14617.029 
   17900    1419.5847    -10863.81            0   -10423.603    14811.832 
   18000    1436.5515   -10851.136            0   -10405.668    14988.863 
   18100    1430.1055   -10848.731            0   -10405.263    14921.605 
   18200    1390.6672   -10851.182            0   -10419.943    14510.109 
   18300    1389.1746   -10855.476            0   -10424.699    14494.536 
   18400    1429.5623   -10869.647            0   -10426.347    14915.937 
   18500    1393.3161   -10868.776            0   -10436.716    14537.748 
   18600    1368.8741   -10861.085            0   -10436.604    14282.722 
   18700    1397.5602   -10848.128            0   -10414.751    14582.031 
   18800    1441.4683   -10857.491            0   -10410.499    15040.164 
   18900    1430.0902   -10859.193            0   -10415.729    14921.445 
   19000      1382.66   -10856.608            0   -10427.852    14426.563 
   19100    1405.7578   -10869.376            0   -10433.457    14667.564 
   19200    1337.0548   -10853.072            0   -10438.458    13950.722 
   19300    1407.6348   -10857.602            0   -10421.101    14687.148 
   19400    1434.6889   -10856.586            0   -10411.696    14969.428 
   19500    1417.0142   -10852.174            0   -10412.765    14785.012 
   19600    1412.5387   -10859.363            0   -10421.342    14738.315 
   19700    1394.6489   -10866.056            0   -10433.582    14551.654 
   19800    1345.1949   -10862.803            0   -10445.664    14035.655 
   19900    1369.7305   -10862.262            0   -10437.515    14291.658 
   20000    1390.4511   -10848.325            0   -10417.153    14507.855 
   20100    1443.6205   -10857.897            0   -10410.238     15062.62 
   20200    1404.2216   -10845.698            0   -10410.256    14651.535 
   20300    1404.2033   -10850.405            0   -10414.969    14651.344 
   20400    1421.7859   -10866.625            0   -10425.736      14834.8 
   20500    1348.1489   -10858.183            0   -10440.128    14066.477 
   20600    1386.8501   -10864.731            0   -10434.676    14470.282 
   20700    1412.2443   -10865.136            0   -10427.206    14735.243 
   20800    1380.5994    -10849.56            0   -10421.442    14405.063 
   20900    1412.4905   -10855.396            0   -10417.389    14737.812 
   21000    1408.3379   -10853.611            0   -10416.893    14694.484 
   21100    1419.7529   -10861.472            0   -10421.213    14813.587 
   21200    1417.5227   -10873.438            0   -10433.872    14790.318 
   21300    1372.5904   -10867.225            0   -10441.591    14321.497 
   21400    1360.3296    -10860.84            0   -10439.008    14193.569 
   21500    1425.2862   -10862.387            0   -10420.412    14871.322 
   21600    1418.6555   -10858.321            0   -10418.403    14802.138 
   21700    1402.8607   -10855.511            0   -10420.491    14637.335 
   21800    1421.6063   -10867.072            0   -10426.239    14832.926 
   21900    1355.9963   -10862.916            0   -10442.428    14148.356 
   22000    1360.8119   -10864.613            0   -10442.632    14198.602 
   22100    1394.0863   -10858.991            0   -10426.692    14545.784 
   22200    1406.7471    -10855.33            0   -10419.105    14677.885 
   22300    1379.1238   -10848.988            0   -10421.329    14389.666 
   22400    1393.4791   -10855.202            0   -10423.091    14539.448 
   22500    1429.0441   -10866.143            0   -10423.003    14910.531 
   22600    1407.7088   -10866.157            0   -10429.634     14687.92 
   22700    1382.2836   -10867.176            0   -10438.536    14422.636 
   22800    1383.9055   -10868.781            0   -10439.639    14439.559 
   22900    1400.5174   -10859.326            0   -10425.033    14612.886 
   23000    1429.3545   -10857.235            0       -10414    14913.769 
   23100    1424.7514   -10859.075            0   -10417.267    14865.741 
   23200    1423.1935   -10867.876            0   -10426.551    14849.486 
   23300    1364.7335   -10857.448            0   -10434.251     14239.52 
   23400    1411.1363   -10866.657            0   -10429.071    14723.682 
   23500    1390.6441    -10856.23            0   -10424.999    14509.869 
   23600    1436.3681   -10862.781            0   -10417.371    14986.949 
   23700    1421.6327   -10850.561            0   -10409.719    14833.201 
   23800     1407.794   -10852.505            0   -10415.955    14688.809 
   23900    1370.9358   -10857.078            0   -10431.958    14304.234 
   24000    1403.5954   -10864.916            0   -10429.668    14645.001 
   24100    1422.4648   -10864.159            0    -10423.06    14841.883 
   24200    1411.1775   -10852.868            0   -10415.269    14724.113 
   24300    1445.4547   -10857.531            0   -10409.303    15081.758 
   24400    1413.9654   -10863.722            0   -10425.258    14753.201 
   24500      1360.25    -10857.28            0   -10435.473    14192.739 
   24600    1397.7908   -10866.553            0   -10433.105    14584.437 
   24700    1440.9126   -10869.364            0   -10422.544    15034.366 
   24800    1450.3619    -10860.76            0    -10411.01    15132.959 
   24900    1452.1644   -10851.351            0   -10401.042    15151.766 
   25000    1440.1318   -10849.692            0   -10403.115    15026.219 
   25100    1401.5099   -10856.531            0    -10421.93    14623.241 
   25200    1373.2243    -10852.82            0    -10426.99    14328.112 
   25300    1410.3299   -10865.617            0   -10428.281    14715.268 
   25400    1387.0228   -10864.761            0   -10434.652    14472.084 
   25500    1371.7163   -10868.242            0    -10442.88    14312.378 
   25600    1376.2544    -10873.58            0    -10446.81    14359.727 
   25700    1380.6377   -10871.581            0   -10443.452    14405.463 
   25800    1402.0678   -10861.336            0   -10426.562    14629.062 
   25900    1411.6867   -10860.126            0   -10422.369    14729.426 
   26000    1410.1403   -10856.882            0   -10419.604     14713.29 
   26100    1401.3564   -10852.656            0   -10418.103    14621.639 
   26200    1375.0126   -10851.324            0    -10424.94    14346.771 
   26300    1372.5622   -10861.072            0   -10435.447    14321.204 
   26400    1417.2887   -10871.772            0   -10432.278    14787.876 
   26500    1408.0276   -10854.299            0   -10417.676    14691.246 
   26600    1407.5451   -10842.175            0   -10405.702    14686.212 
   26700    1446.4768   -10855.886            0    -10407.34    15092.422 
   26800    1406.9228   -10855.139            0   -10418.859    14679.719 
   26900    1412.0983   -10864.118            0   -10426.233    14733.719 
   27000     1430.794   -10873.291            0   -10429.609    14928.789 
   27100    1414.2791   -10867.162            0   -10428.601    14756.474 
   27200    1396.6102    -10859.57            0   -10426.488    14572.118 
   27300    1393.3732   -10858.075            0   -10425.997    14538.343 
   27400    1397.2539   -10860.972            0    -10427.69    14578.835 
   27500    1405.4618   -10859.123            0   -10423.296    14664.475 
   27600    1423.8451   -10844.747            0    -10403.22    14856.285 
   27700    1419.9771   -10844.052            0   -10403.724    14815.927 
   27800    1385.3597   -10848.733            0    -10419.14    14454.731 
   27900    1383.7053   -10858.423            0   -10429.343     14437.47 
   28000    1396.1378   -10861.942            0   -10429.007    14567.189 
   28100    1405.3401   -10860.034            0   -10424.245    14663.205 
   28200    1413.5464   -10848.928            0   -10410.594    14748.829 
   28300    1448.8557   -10852.888            0   -10403.605    15117.244 
   28400    1385.7002   -10848.856            0   -10419.158    14458.284 
   28500    1374.8731   -10856.557            0   -10430.215    14345.315 
   28600    1399.7507   -10862.443            0   -10428.388    14604.885 
   28700    1371.0835   -10851.035            0   -10425.869    14305.775 
   28800    1406.4105   -10853.029            0   -10416.908    14674.373 
   28900    1470.4204   -10860.208            0   -10404.238    15342.248 
   29000     1413.413   -10852.841            0   -10414.548    14747.437 
   29100    1393.9545   -10861.117            0   -10428.859    14544.409 
   29200    1373.1328   -10856.875            0   -10431.073    14327.156 
   29300    1390.1622   -10858.246            0   -10427.164     14504.84 
   29400    1410.5227   -10851.618            0   -10414.222     14717.28 
   29500    1438.6618   -10843.752            0    -10397.63    15010.881 
   29600    1451.0282   -10854.345            0   -10404.388    15139.912 
   29700     1448.711   -10866.685            0   -10417.446    15115.733 
   29800    1361.1927    -10848.88            0   -10426.781    14202.575 
   29900    1412.7267   -10867.734            0   -10429.655    14740.276 
   30000    1375.3943   -10857.209            0   -10430.706    14350.753 
   30100    1426.7868   -10856.341            0   -10413.901    14886.978 
   30200    1439.4075   -10850.321            0   -10403.968    15018.661 
   30300    1412.1263   -10853.701            0   -10415.808    14734.012 
   30400    1415.0201   -10867.424            0   -10428.633    14764.205 
   30500    1380.3505   -10862.867            0   -10434.827    14402.466 
   30600    1394.3356   -10863.476            0   -10431.099    14548.385 
   30700    1427.9528   -10859.835            0   -10417.034    14899.145 
   30800    1417.9443   -10847.812            0   -10408.115    14794.717 
   30900    1437.4516   -10866.238            0   -10420.492    14998.254 
   31000    1388.8407   -10868.566            0   -10437.894    14491.051 
   31100    1334.5045   -10851.625            0   -10437.802    13924.112 
   31200    1393.4681   -10855.725            0   -10423.617    14539.334 
   31300    1437.1077    -10860.73            0    -10415.09    14994.665 
   31400    1392.6524   -10849.558            0   -10417.703    14530.823 
   31500    1429.5367   -10872.587            0   -10429.295     14915.67 
   31600    1400.4622   -10877.803            0   -10443.526     14612.31 
   31700    1369.2926   -10863.745            0   -10439.134    14287.088 
   31800    1413.8456   -10867.243            0   -10428.817    14751.951 
   31900    1416.9599   -10865.272            0    -10425.88    14784.445 
   32000    1380.6353   -10856.011            0   -10427.883    14405.438 
   32100    1382.5445   -10858.474            0   -10429.753    14425.358 
   32200    1355.2736   -10847.771            0   -10427.507    14140.815 
   32300    1410.3695   -10846.287            0   -10408.938    14715.682 
   32400    1427.3816    -10845.74            0   -10403.116    14893.185 
   32500    1430.1619   -10858.663            0   -10415.177    14922.194 
   32600    1427.3553   -10870.915            0   -10428.299     14892.91 
   32700    1395.5494   -10868.378            0   -10435.625     14561.05 
   32800    1382.3114    -10862.45            0   -10433.802    14422.925 
   32900    1410.9439   -10855.448            0   -10417.921    14721.675 
   33000    1420.2685   -10850.602            0   -10410.183    14818.967 
   33100    1427.3703   -10856.115            0   -10413.495    14893.067 
   33200    1413.6441   -10858.588            0   -10420.224    14749.849 
   33300    1412.0693    -10862.77            0   -10424.894    14733.417 
   33400    1395.7357   -10861.427            0   -10428.616    14562.994 
   33500    1375.9704   -10854.784            0   -10428.103    14356.764 
   33600     1413.502   -10848.531            0   -10410.211    14748.366 
   33700    1421.5933   -10844.786            0   -10403.957     14832.79 
   33800     1417.814   -10859.384            0   -10419.727    14793.357 
   33900    1409.7648    -10865.69            0   -10428.529    14709.372 
   34000    1385.6899   -10863.676            0    -10433.98    14458.177 
   34100    1352.5039   -10857.265            0    -10437.86    14111.917 
   34200    1382.1355   -10853.276            0   -10424.683     14421.09 
   34300    1421.6751   -10851.222            0   -10410.367    14833.644 
   34400    1402.8589   -10850.335            0   -10415.315    14637.316 
   34500    1411.7286   -10864.185            0   -10426.414    14729.863 
   34600     1410.866   -10866.007            0   -10428.504    14720.862 
   34700    1395.0358   -10861.644            0    -10429.05    14555.691 
   34800    1395.6535   -10859.566            0   -10426.781    14562.136 
   34900    1385.1345   -10846.685            0   -10417.161    14452.381 
   35000    1438.0326    -10844.84            0   -10398.913    15004.316 
   35100    1409.1255   -10845.652            0   -10408.689    14702.702 
   35200    1417.3136   -10863.519            0   -10424.017    14788.136 
   35300    1387.1495   -10858.438            0    -10428.29    14473.406 
   35400    1407.8502   -10854.382            0   -10417.814    14689.396 
   35500     1444.029   -10857.284            0   -10409.498    15066.882 
   35600    1429.2967   -10860.975            0   -10417.757    14913.166 
   35700    1399.2817   -10857.732            0   -10423.822    14599.992 
   35800    1376.6897   -10851.542            0   -10424.637    14364.269 
   35900    1423.2698   -10862.109            0    -10420.76    14850.282 
   36000    1420.9975   -10860.317            0   -10419.673    14826.573 
   36100    1401.1097    -10865.44            0   -10430.963    14619.066 
   36200    1369.2519   -10864.558            0   -10439.959    14286.664 
   36300    1383.8631   -10859.482            0   -10430.353    14439.116 
   36400    1414.4136   -10852.106            0   -10413.504    14757.878 
   36500    1421.8108   -10854.146            0   -10413.249    14835.059 
   36600    1382.7666   -10849.028            0   -10420.239    14427.675 
   36700    1362.0838   -10846.611            0   -10424.236    14211.872 
   36800    1408.6531   -10860.114            0   -10423.298    14697.773 
   36900    1399.7316   -10865.486            0   -10431.436    14604.687 
   37000    1373.4011   -10864.998            0   -10439.113    14329.956 
   37100    1391.2785   -10860.644            0   -10429.215    14516.487 
   37200    1421.0642   -10859.339            0   -10418.674     14827.27 
   37300    1411.7078   -10856.952            0   -10419.188    14729.645 
   37400    1407.0141   -10868.681            0   -10432.373    14680.672 
   37500    1374.5883   -10875.726            0   -10449.473    14342.343 
   37600    1383.8463   -10873.193            0   -10444.069     14438.94 
   37700    1361.1806   -10854.148            0   -10432.053    14202.449 
   37800    1376.5664   -10848.332            0   -10421.466    14362.983 
   37900    1435.1539   -10861.521            0   -10416.486     14974.28 
   38000    1409.5834   -10864.055            0    -10426.95    14707.479 
   38100    1374.2831   -10866.329            0   -10440.171    14339.159 
   38200    1397.2413   -10868.021            0   -10434.744    14578.703 
   38300    1408.6512   -10863.721            0   -10426.905    14697.753 
   38400    1384.9199   -10851.921            0   -10422.464    14450.143 
   38500    1419.3149   -10860.384            0   -10420.261    14809.017 
   38600      1377.02   -10861.713            0   -10434.706    14367.715 
   38700    1372.8731   -10870.436            0   -10444.714    14324.447 
   38800    1403.7079   -10869.806            0   -10434.523    14646.175 
   38900    1410.9753   -10861.795            0   -10424.258    14722.002 
   39000    1413.0266   -10863.507            0   -10425.334    14743.406 
   39100    1399.2197   -10865.939            0   -10432.048    14599.345 
   39200    1404.3045   -10872.021            0   -10436.553      14652.4 
   39300     1365.333   -10862.541            0   -10439.158    14245.774 
   39400    1433.7548   -10861.673            0   -10417.073    14959.682 
   39500    1427.5618   -10849.904            0   -10407.224    14895.065 
   39600    1424.7265   -10854.909            0   -10413.108    14865.482 
   39700    1413.6507   -10865.287            0   -10426.921    14749.917 
   39800    1389.7964    -10864.02            0   -10433.051    14501.023 
   39900    1362.1235   -10851.438            0    -10429.05    14212.286 
   40000    1420.9578    -10858.04            0   -10417.408    14826.159 
   40100    1442.1099   -10863.326            0   -10416.135    15046.858 
   40200    1382.5449   -10849.004            0   -10420.284    14425.362 
   40300    1441.9905   -10873.114            0    -10425.96    15045.612 
   40400    1390.8172   -10870.444            0   -10439.159    14511.674 
   40500    1383.0604   -10874.473            0   -10445.592    14430.741 
   40600    1398.4875   -10872.909            0   -10439.245    14591.705 
   40700    1393.4164   -10855.702            0   -10423.611    14538.794 
   40800    1406.5229   -10854.794            0   -10418.638    14675.547 
   40900    1411.2978   -10854.511            0   -10416.874    14725.367 
   41000    1416.5245   -10866.019            0   -10426.761    14779.903 
   41100    1375.9958       -10866            0    -10439.31    14357.029 
   41200    1388.7785   -10868.301            0   -10437.647    14490.403 
   41300     1421.591   -10865.322            0   -10424.494    14832.766 
   41400    1383.8227   -10842.045            0   -10412.928    14438.695 
   41500    1418.3635   -10852.451            0   -10412.624     14799.09 
   41600    1403.9554   -10856.786            0   -10421.426    14648.757 
   41700    1377.8468   -10859.534            0   -10432.271    14376.342 
   41800    1402.2538   -10870.209            0   -10435.377    14631.003 
   41900     1444.096   -10871.175            0   -10423.368    15067.581 
   42000    1439.8085   -10857.792            0   -10411.314    15022.846 
   42100     1418.226   -10856.329            0   -10416.544    14797.656 
   42200    1408.7849   -10861.879            0   -10425.022    14699.148 
   42300    1408.8298   -10864.603            0   -10427.731    14699.617 
   42400    1384.4042   -10858.863            0   -10429.566    14444.762 
   42500    1423.8982   -10867.717            0   -10426.173    14856.839 
   42600    1432.1946   -10865.606            0    -10421.49    14943.403 
   42700    1406.9016   -10862.453            0    -10426.18    14679.498 
   42800     1397.285   -10871.993            0   -10438.702    14579.159 
   42900    1374.1826   -10870.033            0   -10443.906     14338.11 
   43000    1392.7778   -10865.364            0   -10433.471    14532.131 
   43100    1425.5505     -10858.6            0   -10416.543    14874.079 
   43200    1438.0352   -10869.794            0   -10423.866    15004.343 
   43300    1398.5307   -10869.794            0   -10436.116    14592.157 
   43400     1367.181   -10859.345            0   -10435.389    14265.056 
   43500    1422.3398   -10862.667            0   -10421.606    14840.579 
   43600    1418.5274   -10851.018            0   -10411.139      14800.8 
   43700    1413.2892   -10851.223            0   -10412.969    14746.146 
   43800    1394.5344   -10855.056            0   -10422.617    14550.459 
   43900    1417.8724   -10868.738            0   -10429.063    14793.966 
   44000    1391.0315   -10869.282            0    -10437.93     14513.91 
   44100    1340.9596   -10868.579            0   -10452.754    13991.464 
   44200    1351.8292   -10872.795            0   -10453.599    14104.876 
   44300    1380.0589   -10865.154            0   -10437.205    14399.423 
   44400    1380.4935   -10855.679            0   -10427.594    14403.957 
   44500    1383.4853   -10849.891            0   -10420.879    14435.174 
   44600    1443.1761   -10862.461            0   -10414.939    15057.983 
   44700    1374.5094   -10850.225            0   -10423.996     14341.52 
   44800    1395.5282    -10873.85            0   -10441.103    14560.828 
   44900    1373.9984   -10866.867            0   -10440.797    14336.188 
   45000    1389.6356   -10860.309            0   -10429.389    14499.346 
   45100    1373.2934   -10847.807            0   -10421.955    14328.832 
   45200    1456.1717   -10869.986            0   -10418.435    15193.578 
   45300    1387.6578   -10858.069            0   -10427.763    14478.709 
   45400    1389.4264   -10869.828            0   -10438.974    14497.163 
   45500    1340.2903   -10864.849            0   -10449.231    13984.481 
   45600    1356.6319   -10862.751            0   -10442.066    14154.987 
   45700    1418.0205   -10864.509            0   -10424.788    14795.511 
   45800    1422.5043    -10860.84            0   -10419.728    14842.295 
   45900      1414.54   -10861.555            0   -10422.913    14759.196 
   46000    1398.2261   -10866.919            0   -10433.336    14588.979 
   46100    1383.0824   -10859.947            0    -10431.06     14430.97 
   46200    1407.7341   -10848.328            0   -10411.797    14688.184 
   46300    1407.1596   -10848.739            0   -10412.386     14682.19 
   46400    1435.1632     -10865.7            0   -10420.663    14974.377 
   46500    1394.4104   -10861.311            0   -10428.911    14549.166 
   46600    1387.6499   -10860.439            0   -10430.136    14478.627 
   46700    1414.8424   -10866.799            0   -10428.063    14762.351 
   46800    1407.5061    -10860.61            0    -10424.15    14685.805 
   46900    1404.5229    -10850.63            0   -10415.094    14654.678 
   47000    1447.2229    -10851.47            0   -10402.693    15100.207 
   47100    1442.7697   -10849.265            0   -10401.869    15053.743 
   47200    1383.8431   -10852.181            0   -10423.058    14438.907 
   47300    1400.7427    -10863.39            0   -10429.026    14615.236 
   47400    1368.5742   -10853.205            0   -10428.817    14279.593 
   47500     1409.082   -10854.489            0    -10417.54    14702.248 
   47600    1416.6846   -10842.746            0   -10403.439    14781.573 
   47700    1406.3077   -10840.296            0   -10404.207    14673.301 
   47800     1411.193   -10853.656            0   -10416.052    14724.274 
   47900    1394.0899   -10857.133            0   -10424.832    14545.821 
   48000    1392.8373   -10865.145            0   -10433.233    14532.752 
   48100     1386.413   -10864.665            0   -10434.745    14465.722 
   48200    1402.5043   -10857.005            0   -10422.095    14633.617 
   48300    1396.2798   -10844.345            0   -10411.365    14568.671 
   48400    1411.5643   -10854.503            0   -10416.784    14728.148 
   48500    1356.8557   -10847.758            0   -10427.004    14157.323 
   48600    1401.1626   -10861.218            0   -10426.724    14619.618 
   48700    1398.6757   -10856.293            0   -10422.571    14593.669 
   48800    1419.9888   -10856.475            0   -10416.143    14816.048 
   48900    1406.0366   -10852.436            0   -10416.431    14670.472 
   49000    1360.6062   -10854.616            0   -10432.699    14196.455 
   49100      1354.13   -10856.681            0   -10436.772    14128.883 
   49200    1406.0032   -10860.429            0   -10424.434    14670.124 
   49300    1429.6129   -10857.851            0   -10414.535    14916.466 
   49400    1413.7923   -10857.284            0   -10418.874    14751.395 
   49500    1379.3856   -10858.507            0   -10430.766    14392.398 
   49600    1373.4413   -10867.211            0   -10441.314    14330.375 
   49700    1387.2113   -10872.349            0   -10442.181    14474.051 
   49800     1395.025   -10857.723            0   -10425.132    14555.578 
   49900    1418.9577   -10857.688            0   -10417.677     14805.29 
   50000    1407.8084   -10858.492            0   -10421.938     14688.96 
Loop time of 16055.6 on 1 procs for 50000 steps with 2400 atoms

Performance: 0.269 ns/day, 89.198 hours/ns, 3.114 timesteps/s
91.9% CPU use with 1 MPI tasks x 1 OpenMP threads

MPI task timing breakdown:
Section |  min time  |  avg time  |  max time  |%varavg| %total
---------------------------------------------------------------
Pair    | 16011      | 16011      | 16011      |   0.0 | 99.72
Neigh   | 36.666     | 36.666     | 36.666     |   0.0 |  0.23
Comm    | 3.4252     | 3.4252     | 3.4252     |   0.0 |  0.02
Output  | 0.016932   | 0.016932   | 0.016932   |   0.0 |  0.00
Modify  | 3.6681     | 3.6681     | 3.6681     |   0.0 |  0.02
Other   |            | 0.9854     |            |       |  0.01

Nlocal:        2400.00 ave        2400 max        2400 min
Histogram: 1 0 0 0 0 0 0 0 0 0
Nghost:        4912.00 ave        4912 max        4912 min
Histogram: 1 0 0 0 0 0 0 0 0 0
Neighs:         0.00000 ave           0 max           0 min
Histogram: 1 0 0 0 0 0 0 0 0 0
FullNghs:      258438.0 ave      258438 max      258438 min
Histogram: 1 0 0 0 0 0 0 0 0 0

Total # of neighbors = 258438
Ave neighs/atom = 107.68250
Neighbor list builds = 2410
Dangerous builds = 0

velocity        all scale ${Tsim}
velocity        all scale 1400
unfix           1

#-----------------------------------------
# 2nd equilibration run
compute         ke all ke/atom
variable        temp atom c_ke/1.5

fix             1 all nve

compute         layers all chunk/atom bin/1d z lower 0.05 units reduced # <--- delta z ?
fix             2 all ave/chunk 10 100 1000 layers v_temp file profile.mp # <--- use every 10 steps, 100 times, repeat every 1000 steps
fix             3 all thermal/conductivity 10 z 20 # <--- perform kintic energy swap every 10 steps, using 20 bins

variable        tdiff equal f_2[11][3]-f_2[1][3]
thermo_style    custom step temp epair etotal f_3 v_tdiff
thermo          1000
#thermo_modify   colname f_3 E_delta colname v_tdiff dTemp_step


run 200000
Per MPI rank memory allocation (min/avg/max) = 4.242 | 4.242 | 4.242 Mbytes
Step Temp E_pair TotEng f_3 v_tdiff 
   50000         1400    -10858.49   -10424.357            0            0 
   51000    1406.0587   -10860.374   -10424.362    54.231295  0.041885086 
   52000    1389.7377   -10855.334   -10424.383    106.16819  0.052562294 
   53000    1413.3006   -10862.626   -10424.368    155.46088  0.061945024 
   54000    1383.3845   -10853.354   -10424.373    202.87324  0.077306369 
   55000    1420.9239   -10865.003   -10424.381    249.22462  0.075200785 
   56000    1397.6862   -10857.793   -10424.377    294.85671  0.072623936 
   57000    1399.2144   -10858.269   -10424.379    340.23027  0.073329443 
   58000    1396.0368   -10857.278   -10424.374    384.72452  0.081245967 
   59000    1421.7007   -10865.233   -10424.371    430.81716  0.079129821 
   60000    1421.2031   -10865.088    -10424.38    475.70236   0.07077162 
   61000    1378.2146   -10851.715   -10424.337    520.29449  0.074029209 
   62000    1422.7968   -10865.554   -10424.351    564.48327  0.073598581 
   63000    1406.4048    -10860.48   -10424.361    608.67337  0.074760631 
   64000    1386.3257    -10854.25   -10424.357    652.00705  0.071245695 
   65000    1391.1931   -10855.736   -10424.334    699.53128  0.073990283 
   66000    1438.2695   -10870.356   -10424.356    747.43749  0.074984349 
   67000    1399.7965   -10858.408   -10424.338    793.78018  0.066565236 
   68000    1368.8621   -10848.815   -10424.338    839.79486  0.071115709 
   69000    1408.1079   -10861.017   -10424.369    887.31405  0.072749938 
   70000    1423.5591   -10865.783   -10424.345    930.53369  0.077865171 
   71000    1466.5908   -10879.153   -10424.371    972.72967  0.082128876 
   72000    1397.4514   -10857.701   -10424.358     1017.089  0.074757698 
   73000     1391.077   -10855.684   -10424.317    1063.6256  0.067528868 
   74000    1410.7327   -10861.823   -10424.362    1107.1983  0.078275069 
   75000    1407.7689   -10860.891   -10424.348    1151.0215  0.073022549 
   76000    1391.0721   -10855.694    -10424.33    1198.2059  0.069751058 
   77000    1427.5551   -10867.034   -10424.356    1243.5227  0.077348479 
   78000    1394.1558   -10856.656   -10424.335    1288.6325  0.077592991 
   79000    1404.4544   -10859.844   -10424.329    1334.6358  0.077251465 
   80000    1411.3733   -10862.002   -10424.342    1382.0039  0.076559932 
   81000    1385.3044   -10853.904   -10424.328    1427.0097  0.077227131 
   82000    1413.1422    -10862.55   -10424.341    1475.2341  0.069909922 
   83000    1416.6523   -10863.635   -10424.338    1521.8027  0.071852056 
   84000    1432.6904   -10868.637   -10424.366    1567.4473  0.075077978 
   85000    1406.5403   -10860.501    -10424.34    1613.6357  0.071702239 
   86000    1415.4312   -10863.245   -10424.327    1660.1144  0.076098108 
   87000    1410.5152   -10861.739   -10424.345    1707.3479   0.07191925 
   88000    1423.1135   -10865.634   -10424.333    1753.2621  0.072916914 
   89000     1392.678   -10856.189   -10424.327    1798.1136    0.0762733 
   90000    1393.1335   -10856.357   -10424.354    1842.4355  0.075959566 
   91000    1398.1157    -10857.89   -10424.341    1885.8531  0.080203992 
   92000    1394.9453   -10856.899   -10424.334    1931.3841  0.082213712 
   93000    1413.6755   -10862.723   -10424.349    1977.9716   0.07048274 
   94000    1395.6767   -10857.127   -10424.334     2026.626   0.06851385 
   95000    1411.5527   -10862.056    -10424.34    2073.4088  0.074809382 
   96000    1412.6886   -10862.421   -10424.353    2120.1428  0.074744412 
   97000    1420.7905   -10864.945   -10424.365    2167.2912  0.064728576 
   98000    1408.4098   -10861.071    -10424.33    2214.3406  0.076882325 
   99000     1401.528   -10858.979   -10424.372    2257.4064  0.079606168 
  100000    1413.8271   -10862.767   -10424.346    2302.4488  0.074244595 
  101000    1391.7656   -10855.929   -10424.349    2348.2617  0.072132594 
  102000    1408.9733   -10861.253   -10424.337    2390.4042  0.083968397 
  103000    1407.2586   -10860.734    -10424.35    2436.1174  0.082146113 
  104000    1412.2724   -10862.311   -10424.372    2480.7285  0.077098012 
  105000    1396.6788   -10857.453    -10424.35    2524.3112  0.080601665 
  106000    1406.8434   -10860.578   -10424.323    2571.6339   0.07616052 
  107000    1401.6487   -10858.985   -10424.341    2617.4041  0.071010579 
  108000    1396.1927   -10857.271   -10424.318    2663.1377  0.075658126 
  109000    1395.0705   -10856.958   -10424.353    2709.5285  0.071145323 
  110000    1412.7875   -10862.445   -10424.347    2753.7909  0.073510277 
  111000    1414.4324   -10862.955   -10424.347    2799.8879  0.070958953 
  112000    1378.7088   -10851.863   -10424.332     2847.339  0.061499844 
  113000    1407.2129   -10860.711   -10424.341    2892.5782  0.072296582 
  114000    1411.5476   -10862.057   -10424.343    2938.0646  0.075905644 
  115000    1409.6768   -10861.475   -10424.341    2982.6259  0.073317815 
  116000    1386.3965   -10854.259   -10424.344    3029.7654  0.068257318 
  117000      1390.99   -10855.692   -10424.353    3074.0227  0.068369656 
  118000    1412.8158   -10862.421   -10424.314    3118.7218  0.074432222 
  119000    1426.2772   -10866.623   -10424.341    3165.6086  0.067887924 
  120000     1409.136   -10861.321   -10424.355    3209.8174  0.072471823 
  121000    1402.1844   -10859.175   -10424.364     3258.799  0.064743344 
  122000    1419.5964   -10864.575   -10424.365    3307.0539  0.068560746 
  123000    1419.9313    -10864.67   -10424.356    3354.7322  0.078067431 
  124000    1411.9971   -10862.198   -10424.345    3398.4755  0.071504482 
  125000     1399.319   -10858.304   -10424.382    3444.1764  0.076769263 
  126000    1431.7242   -10868.342   -10424.371    3489.8441  0.073218873 
  127000    1398.4494   -10858.021   -10424.368    3535.4667  0.080402417 
  128000    1396.0822   -10857.294   -10424.376    3581.0211  0.085719706 
  129000    1406.8684   -10860.633    -10424.37    3628.1825  0.078925062 
  130000    1385.8488    -10854.11   -10424.365    3672.5609  0.078219429 
  131000         1380   -10852.303   -10424.372    3719.4754   0.07197107 
  132000    1421.5096   -10865.183   -10424.379    3767.1889  0.071579165 
  133000    1402.5885   -10859.301   -10424.365    3814.5958  0.075282954 
  134000    1417.7605   -10864.013   -10424.372    3859.3977  0.071732639 
  135000    1425.8288   -10866.488   -10424.346    3904.9597  0.074465918 
  136000     1403.337   -10859.525   -10424.357    3950.4165  0.081771079 
  137000    1420.5991   -10864.881    -10424.36    3993.5456  0.081831956 
  138000    1404.8251    -10859.99   -10424.361     4039.891  0.079799187 
  139000    1396.0328   -10857.278   -10424.375    4085.9772  0.076676477 
  140000    1394.4355   -10856.778   -10424.371    4134.3262  0.076414216 
  141000    1405.7073   -10860.253    -10424.35    4180.9019   0.07494101 
  142000    1417.1746   -10863.844   -10424.385    4228.9726  0.080913049 
  143000    1394.6825   -10856.859   -10424.375    4274.0328  0.076137073 
  144000    1403.2525    -10859.51   -10424.368    4318.9791  0.074470894 
  145000     1381.483   -10852.747   -10424.356    4363.5396  0.073986364 
  146000    1385.8876   -10854.127    -10424.37    4410.0272  0.080049509 
  147000    1390.8345    -10855.64   -10424.349    4455.6123  0.074837158 
  148000     1408.963   -10861.281   -10424.369    4502.8149  0.074753869 
  149000    1389.6013   -10855.286   -10424.378    4548.1949  0.079905839 
  150000    1407.0582   -10860.709   -10424.387    4593.9292  0.078853168 
  151000    1396.1917   -10857.319   -10424.367    4639.9561  0.076100129 
  152000    1387.3511   -10854.576   -10424.365    4684.2251  0.073736606 
  153000     1430.257   -10867.922   -10424.406    4730.5157  0.072799835 
  154000    1408.7933   -10861.231   -10424.372    4777.8027  0.074298827 
  155000    1403.7265   -10859.663   -10424.374    4822.6696   0.07736798 
  156000    1398.7773   -10858.109   -10424.355    4868.1283  0.073440756 
  157000    1379.5536   -10852.145   -10424.352     4914.485  0.082604504 
  158000      1422.91   -10865.593   -10424.355     4958.579  0.080866427 
  159000    1404.8354   -10860.012   -10424.379    5004.6853  0.080811064 
  160000    1422.6277   -10865.538   -10424.388    5051.1197  0.075574079 
  161000    1413.6924   -10862.744   -10424.365    5097.2861  0.078599873 
  162000    1399.4247   -10858.317   -10424.363    5142.4712  0.081670759 
  163000    1401.2433   -10858.875   -10424.356    5186.9345  0.073264984 
  164000    1398.0632   -10857.881   -10424.348    5232.9902  0.073552262 
  165000    1435.1199   -10869.397   -10424.374    5278.2778  0.075890328 
  166000    1396.0324    -10857.29   -10424.387    5325.1226  0.072511799 
  167000    1417.3162   -10863.864   -10424.361    5370.7905  0.070177057 
  168000    1396.4344   -10857.405   -10424.378    5417.0491  0.070866899 
  169000    1405.2188   -10860.124   -10424.373    5463.0231  0.070705016 
  170000    1389.3983   -10855.208   -10424.362    5509.3912  0.086298243 
  171000    1398.1492    -10857.93    -10424.37    5556.2052   0.07466445 
  172000    1408.6245   -10861.216   -10424.408     5602.981  0.075719885 
  173000    1418.0012   -10864.086   -10424.371    5648.8524  0.074389299 
  174000    1391.6331   -10855.911   -10424.373    5697.8063  0.071684325 
  175000    1408.9216   -10861.271   -10424.372    5744.9176  0.076524217 
  176000    1391.6911   -10855.937    -10424.38    5793.4134  0.076574831 
  177000    1390.1964   -10855.455   -10424.362    5840.2365   0.07922989 
  178000     1426.755   -10866.808   -10424.378    5886.9811   0.07965281 
  179000    1396.3708   -10857.399   -10424.392    5938.0023  0.070104177 
  180000    1418.0707   -10864.145   -10424.408    5984.7515  0.073429764 
  181000    1402.7573   -10859.374   -10424.386    6034.0214  0.074733595 
  182000    1405.8385   -10860.341   -10424.397    6082.0976  0.072668465 
  183000     1398.662   -10858.105   -10424.387    6129.3697  0.074484888 
  184000    1392.0663   -10856.076   -10424.403    6177.0692  0.069183641 
  185000    1418.9105   -10864.418   -10424.421    6222.7033  0.073539055 
  186000    1375.0477   -10850.812   -10424.417    6268.4335   0.07721541 
  187000    1395.5406   -10857.171   -10424.421    6314.8157  0.073013469 
  188000    1421.0748   -10865.093   -10424.424    6359.6407  0.071453573 
  189000    1399.7803   -10858.491   -10424.426    6404.3806  0.074521525 
  190000    1423.9823   -10865.992   -10424.422    6450.7558  0.080121464 
  191000    1430.5104   -10868.021   -10424.426    6496.7765  0.079364799 
  192000    1414.7007   -10863.113   -10424.422     6541.162  0.075415042 
  193000    1394.8127   -10856.933   -10424.408    6585.7819  0.081859025 
  194000    1389.9569   -10855.412   -10424.393    6633.2656  0.077165717 
  195000    1370.6282   -10849.444   -10424.419    6679.8129  0.073011311 
  196000    1409.0799   -10861.368   -10424.419    6725.8974   0.07785736 
  197000    1425.6986   -10866.553   -10424.451    6772.9152  0.074478204 
  198000    1416.9925   -10863.817   -10424.415    6821.4064  0.074670191 
  199000     1388.314   -10854.944   -10424.435    6865.8848  0.077840023 
  200000    1430.7564   -10868.126   -10424.455    6911.8496  0.073877137 
  201000    1418.5987   -10864.323   -10424.423    6957.5699  0.079561848 
  202000    1395.6605   -10857.205   -10424.418    7001.8763   0.07340612 
  203000    1425.6777   -10866.542   -10424.446    7045.9282  0.069147606 
  204000    1383.3924   -10853.408   -10424.425    7094.9531  0.075514996 
  205000    1415.0949   -10863.248   -10424.434    7140.9368  0.069566908 
  206000    1395.2508   -10857.082   -10424.422    7186.7075  0.070813447 
  207000    1412.7285   -10862.507   -10424.427    7233.3845  0.074484211 
  208000    1410.3608   -10861.764   -10424.418    7279.7507  0.077764105 
  209000    1384.0108   -10853.604   -10424.429    7325.0848  0.074977064 
  210000    1368.3343   -10848.745   -10424.431    7372.3907  0.075595158 
  211000     1454.396   -10875.465   -10424.464    7420.6864  0.068674191 
  212000    1412.8892   -10862.568   -10424.438    7465.1231  0.067459303 
  213000    1389.9778   -10855.467   -10424.442    7511.9141  0.072251412 
  214000    1411.9407   -10862.292   -10424.456    7557.6395  0.080978914 
  215000    1440.0854   -10871.025   -10424.462    7602.8893  0.074503288 
  216000    1386.1111   -10854.261   -10424.434    7650.9097  0.070787097 
  217000    1413.2232   -10862.668   -10424.434    7699.4343  0.070329475 
  218000    1378.4743   -10851.897   -10424.439    7745.3678  0.074126352 
  219000    1402.8505   -10859.467    -10424.45     7793.632  0.076645807 
  220000    1409.5062   -10861.528   -10424.447    7839.3754  0.084678914 
  221000    1435.9948   -10869.747   -10424.452    7882.6497  0.077518851 
  222000    1401.3464   -10859.024   -10424.474    7929.3046  0.075726531 
  223000    1391.3574   -10855.875   -10424.422    7976.2373  0.077856308 
  224000    1399.5246     -10858.4   -10424.415     8021.097  0.078731474 
  225000      1397.62     -10857.8   -10424.405    8068.6825  0.072635399 
  226000    1414.3341   -10863.021   -10424.442    8114.4178  0.073230614 
  227000    1373.4836   -10850.328   -10424.418    8159.2352  0.068984765 
  228000    1381.5483   -10852.847   -10424.435     8205.086  0.067215161 
  229000    1389.5846   -10855.361   -10424.458     8249.909  0.075448268 
  230000    1403.1941   -10859.585   -10424.461    8294.0735  0.070505496 
  231000    1407.1084   -10860.791   -10424.454    8340.6329  0.071593622 
  232000    1407.5781   -10860.931   -10424.448    8386.3594  0.075463712 
  233000    1390.1289   -10855.504   -10424.432    8434.3407  0.075734519 
  234000      1404.19   -10859.888   -10424.455    8479.3286   0.07794855 
  235000    1413.7586   -10862.841   -10424.441    8527.9356  0.079618723 
  236000    1388.2532   -10854.934   -10424.443    8573.4326  0.078149078 
  237000     1427.399   -10867.104   -10424.474    8618.3572  0.079111508 
  238000    1382.8567   -10853.274   -10424.457    8663.5841    0.0778422 
  239000    1412.5173   -10862.451   -10424.436    8707.0994  0.076270626 
  240000    1419.7196   -10864.715   -10424.467    8753.3151  0.081812689 
  241000      1431.46    -10868.36   -10424.472    8797.7173  0.074819078 
  242000    1418.6979   -10864.391   -10424.459    8844.1086  0.077988225 
  243000    1368.8091   -10848.887   -10424.426    8890.6643  0.075506992 
  244000    1431.7987   -10868.479   -10424.485    8936.1249  0.075244055 
  245000    1398.5791   -10858.143    -10424.45    8983.0225  0.074588349 
  246000     1382.797   -10853.244   -10424.446    9028.4532  0.071691438 
  247000    1391.2148   -10855.878   -10424.469    9072.8422  0.076014143 
  248000    1406.0616   -10860.481   -10424.469    9120.7479  0.070694164 
  249000    1416.9595    -10863.86   -10424.468    9167.6252  0.075904747 
  250000    1371.3022   -10849.688   -10424.453      9212.08  0.076812734 
Loop time of 53989.3 on 1 procs for 200000 steps with 2400 atoms

Performance: 0.320 ns/day, 74.985 hours/ns, 3.704 timesteps/s
93.6% CPU use with 1 MPI tasks x 1 OpenMP threads

MPI task timing breakdown:
Section |  min time  |  avg time  |  max time  |%varavg| %total
---------------------------------------------------------------
Pair    | 53821      | 53821      | 53821      |   0.0 | 99.69
Neigh   | 140.98     | 140.98     | 140.98     |   0.0 |  0.26
Comm    | 13.181     | 13.181     | 13.181     |   0.0 |  0.02
Output  | 0.0062406  | 0.0062406  | 0.0062406  |   0.0 |  0.00
Modify  | 10.592     | 10.592     | 10.592     |   0.0 |  0.02
Other   |            | 3.974      |            |       |  0.01

Nlocal:        2400.00 ave        2400 max        2400 min
Histogram: 1 0 0 0 0 0 0 0 0 0
Nghost:        5040.00 ave        5040 max        5040 min
Histogram: 1 0 0 0 0 0 0 0 0 0
Neighs:         0.00000 ave           0 max           0 min
Histogram: 1 0 0 0 0 0 0 0 0 0
FullNghs:      258646.0 ave      258646 max      258646 min
Histogram: 1 0 0 0 0 0 0 0 0 0

Total # of neighbors = 258646
Ave neighs/atom = 107.76917
Neighbor list builds = 10113
Dangerous builds = 0

#------------------------------------------
# thermal conductivity calculation
fix             3 all thermal/conductivity 10 z 20

variable start_time equal time
variable kappa equal (f_3/(time-${start_time})/(lx*ly)/2.0)*(lz/2.0)/f_ave
variable kappa equal (f_3/(time-250)/(lx*ly)/2.0)*(lz/2.0)/f_ave

fix             ave all ave/time 1 1 1000 v_tdiff ave running
thermo_style    custom step temp epair etotal f_3 v_tdiff f_ave

run 200000
Per MPI rank memory allocation (min/avg/max) = 4.493 | 4.493 | 4.493 Mbytes
Step Temp E_pair TotEng f_3 v_tdiff f_ave 
  250000    1371.3022   -10849.682   -10424.448            0  0.076812734  0.076812734 
  251000    1403.4165    -10859.66   -10424.468    46.304093  0.071467396  0.074140065 
  252000    1405.8018   -10860.396   -10424.464    91.478529  0.068784094  0.072354741 
  253000    1404.8371   -10860.103   -10424.469    140.66993  0.074124782  0.072797251 
  254000    1396.2122   -10857.409   -10424.451    184.61744  0.071666439  0.072571089 
  255000    1444.8308   -10872.491   -10424.456     230.6608  0.076835313  0.073281793 
  256000    1381.2913   -10852.776   -10424.445    275.09061   0.07445992  0.073450097 
  257000    1415.3614   -10863.345   -10424.448    321.23409  0.073308735  0.073432427 
  258000    1410.1667   -10861.763   -10424.477    367.85059  0.075218649  0.073630896 
  259000     1403.051   -10859.551   -10424.472    414.67562  0.077911653  0.074058972 
  260000    1416.9629   -10863.864   -10424.471    459.54743  0.076482547  0.074279297 
  261000    1415.9557   -10863.517   -10424.436     506.9556  0.076505491  0.074464813 
  262000     1394.677   -10856.936   -10424.453    555.32979  0.072880541  0.074342946 
  263000    1413.9788   -10862.962   -10424.494    600.18513  0.070649052  0.074079096 
  264000    1411.3691   -10862.101   -10424.442    645.02454  0.078468779  0.074371742 
  265000    1395.4355   -10857.166   -10424.448    691.27167  0.079240774  0.074676056 
  266000    1403.5184   -10859.675   -10424.451     734.1005  0.075554332  0.074727719 
  267000    1437.1207   -10870.128   -10424.484    780.06065  0.077062434  0.074857426 
  268000     1423.785   -10865.964   -10424.455    827.98865  0.075828863  0.074908554 
  269000    1390.7407     -10855.7   -10424.438    874.32034  0.075616151  0.074943934 
  270000    1402.1308   -10859.229   -10424.436    919.59319  0.074559173  0.074925612 
  271000    1408.2846    -10861.15   -10424.448    963.92651  0.070865892  0.074741079 
  272000    1407.8708    -10861.03   -10424.456    1009.9361  0.078770637  0.074916278 
  273000    1380.1772   -10852.445   -10424.459    1054.4174  0.082456364  0.075230448 
  274000    1400.9353   -10858.873    -10424.45    1099.7447  0.076068012   0.07526395 
  275000    1422.1823   -10865.469   -10424.457    1145.7769  0.083266397  0.075571737 
  276000    1400.4628    -10858.74   -10424.464     1192.763  0.077918655   0.07565866 
  277000    1379.1102   -10852.104   -10424.449    1235.0169  0.079260456  0.075787295 
  278000    1404.1469   -10859.898   -10424.479     1280.918  0.069618219  0.075574568 
  279000    1408.0655   -10861.109   -10424.475    1325.0213  0.066206055  0.075262285 
  280000    1433.1601   -10868.914   -10424.498    1370.5626   0.08042464  0.075428812 
  281000    1389.6759   -10855.414   -10424.482    1414.6742  0.072312329  0.075331422 
  282000    1381.5641   -10852.904   -10424.488    1461.4177  0.072958393  0.075259512 
  283000    1387.4584   -10854.716   -10424.472     1505.926  0.077332826  0.075320492 
  284000    1374.5928   -10850.735   -10424.481    1552.5831  0.081170908  0.075487647 
  285000    1435.1969   -10869.524   -10424.477    1598.9345  0.078675216   0.07557619 
  286000     1423.467   -10865.908   -10424.498    1642.9542  0.083733181   0.07579665 
  287000    1397.2294   -10857.762   -10424.488    1690.7741  0.072712246  0.075715481 
  288000    1411.3267   -10862.149   -10424.504    1736.3464  0.077049008  0.075749674 
  289000    1378.1988   -10851.857   -10424.485    1781.2082  0.070244495  0.075612045 
  290000    1393.3901   -10856.556   -10424.472    1824.7098  0.070867923  0.075496334 
  291000    1405.5001   -10860.328   -10424.489    1872.6754  0.071961458  0.075412171 
  292000    1383.7204   -10853.577   -10424.492    1918.2306  0.074795087   0.07539782 
  293000    1419.8069   -10864.765    -10424.49    1963.4209   0.07196786  0.075319866 
  294000    1392.6226   -10856.315    -10424.47    2010.9817   0.06897501  0.075178869 
  295000    1414.6164   -10863.153   -10424.488    2057.8069  0.076376054  0.075204895 
  296000    1395.9381   -10857.353   -10424.479     2103.271  0.077887138  0.075261964 
  297000    1410.6624   -10861.924   -10424.484    2148.7131  0.076280879  0.075283192 
  298000    1407.1044   -10860.803   -10424.467    2194.0697  0.081877435  0.075417768 
  299000    1437.8938   -10870.391   -10424.507    2238.2075  0.075860919  0.075426631 
  300000    1430.0952   -10867.955    -10424.49    2285.4451  0.072153765  0.075362457 
  301000    1394.6299   -10856.937   -10424.469    2332.5246  0.081618237  0.075482761 
  302000     1398.797   -10858.246   -10424.486    2376.3091   0.08277411  0.075620333 
  303000    1390.4483   -10855.625   -10424.454    2425.0604   0.07296522  0.075571164 
  304000    1417.8064   -10864.125    -10424.47    2471.4896  0.074662571  0.075554645 
  305000    1410.6946   -10861.929   -10424.479    2519.0628  0.068506136  0.075428778 
  306000    1394.5565   -10856.923   -10424.478    2565.6135  0.077386024  0.075463116 
  307000    1413.8898   -10862.942   -10424.502    2611.3943  0.073365844  0.075426956 
  308000    1405.9084   -10860.459   -10424.494    2655.7136  0.072794673  0.075382341 
  309000    1404.9591   -10860.148   -10424.478    2700.6632  0.075229339  0.075379791 
  310000    1391.0609   -10855.826   -10424.465    2747.3191  0.070883196  0.075306076 
  311000    1405.3005   -10860.218   -10424.441    2794.3552  0.075179184   0.07530403 
  312000    1424.3692   -10866.146   -10424.457    2838.6863  0.076177972  0.075317902 
  313000    1413.2546   -10862.716   -10424.473    2885.5765  0.065664471  0.075167067 
  314000    1420.6596   -10865.031   -10424.492    2928.8033  0.069781354   0.07508421 
  315000    1391.8029   -10856.067   -10424.476    2974.0663  0.074198527   0.07507079 
  316000    1410.1602   -10861.776   -10424.493    3019.4209  0.074179403  0.075057486 
  317000     1410.556   -10861.893   -10424.486     3066.027  0.076230054   0.07507473 
  318000    1414.9503   -10863.254   -10424.485    3110.9292  0.076353086  0.075093257 
  319000    1380.0748   -10852.421   -10424.466    3156.7997  0.080206911  0.075166309 
  320000    1406.9254   -10860.754   -10424.473    3202.2999  0.077660313  0.075201436 
  321000    1366.9903   -10848.371   -10424.474    3247.6037  0.077562838  0.075234233 
  322000    1381.3814   -10852.824   -10424.465    3290.3755  0.072205667  0.075192746 
  323000     1408.762   -10861.303   -10424.453    3335.1441  0.071109757   0.07513757 
  324000    1417.3734   -10863.983   -10424.463    3381.7174  0.076978451  0.075162115 
  325000    1403.1914   -10859.613   -10424.491    3427.8161   0.06960321  0.075088972 
  326000    1400.7213   -10858.845   -10424.488    3473.6524  0.073109316  0.075063262 
  327000    1406.9906   -10860.766   -10424.465     3518.726  0.079066009  0.075114579 
  328000    1381.7293   -10852.928    -10424.46    3563.9706  0.075450176  0.075118827 
  329000    1415.9246   -10863.548   -10424.477    3608.7648   0.08180236  0.075202372 
  330000     1376.881   -10851.424    -10424.46    3652.4156  0.075781889  0.075209526 
  331000    1406.6236   -10860.678   -10424.491    3696.0493  0.081381031  0.075284788 
  332000    1380.1475   -10852.467    -10424.49    3742.3345  0.080802007  0.075351261 
  333000    1390.4725   -10855.652   -10424.474    3788.6146  0.065818841   0.07523778 
  334000    1409.6826   -10861.635   -10424.499    3835.7054  0.071045218  0.075188455 
  335000    1415.9276   -10863.535   -10424.463    3879.7172   0.07543806  0.075191358 
  336000    1412.1512   -10862.362   -10424.461    3925.3829     0.072612   0.07516171 
  337000    1432.3083   -10868.641   -10424.489    3969.5282  0.074172842  0.075150473 
  338000    1404.8106   -10860.084   -10424.459    4015.4393  0.079311068  0.075197221 
  339000    1422.8639   -10865.708   -10424.485    4061.4031  0.074591049  0.075190486 
  340000    1399.7555   -10858.532   -10424.475     4107.321  0.072296654  0.075158686 
  341000    1409.5733   -10861.558   -10424.456    4152.1532  0.077001601  0.075178717 
  342000    1402.0928   -10859.246   -10424.464    4200.1541  0.072955042  0.075154807 
  343000     1399.368   -10858.403   -10424.466    4247.6199  0.071626894  0.075117276 
  344000    1396.2831   -10857.443   -10424.463    4297.2914  0.078943707  0.075157554 
  345000    1390.5283   -10855.663   -10424.467    4342.5066   0.08349336  0.075244385 
  346000    1388.5141   -10855.033   -10424.462    4388.4942  0.074910453  0.075240943 
  347000    1437.7213   -10870.305   -10424.474    4433.6684  0.075194503  0.075240469 
  348000    1417.6747   -10864.054    -10424.44    4481.5127  0.072194912  0.075209706 
  349000    1418.4754    -10864.29   -10424.428    4525.8665  0.069677141   0.07515438 
  350000    1406.4417   -10860.565   -10424.435    4572.8965  0.074811006   0.07515098 
  351000    1397.2468   -10857.733   -10424.454       4618.8  0.075463376  0.075154043 
  352000    1417.6826   -10864.099   -10424.482    4666.7369  0.070468416  0.075108551 
  353000    1401.6982   -10859.126   -10424.466    4712.4608  0.071332137   0.07507224 
  354000    1422.5478   -10865.568   -10424.443    4758.4598   0.06689802   0.07499439 
  355000    1407.9246    -10861.06   -10424.469    4806.8716  0.072651231  0.074972285 
  356000     1397.207   -10857.715   -10424.448    4853.4114  0.067959844  0.074906748 
  357000    1370.9968   -10849.612   -10424.473    4898.6441  0.068183488  0.074844495 
  358000    1386.4488   -10854.396   -10424.465    4944.5568  0.069980124  0.074799868 
  359000    1413.9868   -10862.948   -10424.478    4989.9039   0.06774629  0.074735745 
  360000    1404.1205   -10859.881    -10424.47    5038.2847  0.068866358  0.074682867 
  361000    1403.5497   -10859.705   -10424.471    5084.4392  0.071510262  0.074654541 
  362000    1397.2436   -10857.757   -10424.478    5131.4104  0.076825835  0.074673756 
  363000    1406.0928   -10860.522     -10424.5    5177.4062  0.078842317  0.074710322 
  364000    1396.7285   -10857.603   -10424.484    5222.6275  0.073827614  0.074702646 
  365000    1395.7303   -10857.285   -10424.476    5267.2103  0.088107871  0.074818208 
  366000    1403.2704   -10859.631   -10424.484    5311.7636   0.07383344  0.074809792 
  367000    1388.3701   -10855.015   -10424.488    5358.5774  0.071694579  0.074783392 
  368000    1441.0252   -10871.363   -10424.508    5403.9746   0.07166274  0.074757168 
  369000    1386.7282   -10854.512   -10424.494    5449.4019  0.073434611  0.074746146 
  370000    1403.3258   -10859.669   -10424.505    5496.7305  0.073588731  0.074736581 
  371000    1374.0399   -10850.541   -10424.458    5543.3255  0.077292604  0.074757532 
  372000    1409.0829   -10861.448   -10424.499    5587.0495  0.075354024  0.074762381 
  373000    1425.7419   -10866.617   -10424.502    5632.7471  0.074551354   0.07476068 
  374000    1381.2125   -10852.785   -10424.478    5677.6525  0.074082004   0.07475525 
  375000    1419.2366   -10864.599     -10424.5    5723.3561  0.073302288  0.074743719 
  376000    1373.8698   -10850.512   -10424.481    5767.6322  0.080454709  0.074788687 
  377000     1415.205   -10863.349   -10424.501    5815.3961  0.074783237  0.074788645 
  378000    1404.1087   -10859.906   -10424.499    5861.0226  0.070082142   0.07475216 
  379000    1404.2741   -10859.924   -10424.465    5905.7596  0.073652888  0.074743704 
  380000    1380.5229   -10852.556   -10424.462    5949.9606  0.077464448  0.074764473 
  381000    1420.9205   -10865.114   -10424.494    5995.2438  0.071846989  0.074742371 
  382000    1390.5308   -10855.676   -10424.479    6039.5002  0.075855395   0.07475074 
  383000    1384.4985   -10853.812   -10424.486    6086.4756   0.07100924  0.074722818 
  384000    1401.7016   -10859.135   -10424.474    6131.6527   0.07077163   0.07469355 
  385000    1405.5194   -10860.341   -10424.496    6178.0722  0.076637562  0.074707844 
  386000    1396.5796   -10857.565   -10424.493    6222.3446  0.081070123  0.074754284 
  387000    1392.4859   -10856.293    -10424.49    6268.3702  0.077044458   0.07477088 
  388000    1412.1769   -10862.398   -10424.489    6314.7778  0.078821408   0.07480002 
  389000    1430.9529   -10868.217   -10424.485     6362.247  0.074695246  0.074799272 
  390000    1414.3004   -10863.066   -10424.499    6408.3773  0.073784262  0.074792073 
  391000     1422.943   -10865.762   -10424.514    6454.5505   0.07124603  0.074767101 
  392000    1421.4497   -10865.276   -10424.492    6500.1922  0.078127316  0.074790599 
  393000    1422.2754   -10865.564   -10424.524    6547.7066  0.077141149  0.074806922 
  394000    1397.4185   -10857.812   -10424.479    6597.1444     0.067785  0.074758495 
  395000    1403.5517   -10859.692   -10424.458    6642.2305  0.071714686  0.074737647 
  396000    1397.0466   -10857.691   -10424.474    6685.2485  0.081291296   0.07478223 
  397000    1400.2733   -10858.695   -10424.477    6730.2345  0.074925467  0.074783198 
  398000    1407.5217   -10860.937   -10424.471    6776.1581  0.073853006  0.074776955 
  399000    1386.9932   -10854.581   -10424.481    6823.7701  0.074283399  0.074773664 
  400000    1421.2429   -10865.227   -10424.506    6867.5431  0.075752018  0.074780143 
  401000    1399.1562   -10858.357   -10424.486    6913.7337  0.073499719   0.07477172 
  402000    1416.0137   -10863.577   -10424.478    6958.1874   0.06630027  0.074716351 
  403000    1380.9981   -10852.715   -10424.474    7003.4716  0.070356944  0.074688043 
  404000    1397.5101   -10857.838   -10424.477    7050.9894  0.077995749  0.074709383 
  405000    1378.3479   -10851.888   -10424.469    7097.3665  0.073392404  0.074700941 
  406000     1409.878   -10861.682   -10424.485     7142.071  0.081192197  0.074742286 
  407000     1384.129   -10853.683   -10424.471    7184.8514  0.075224007  0.074745335 
  408000    1386.6072    -10854.44    -10424.46     7231.488  0.068978737  0.074709067 
  409000     1372.787   -10850.153   -10424.459    7277.7635  0.075823442  0.074716032 
  410000    1414.2275   -10863.035    -10424.49     7324.759  0.073805424  0.074710376 
  411000    1423.7527   -10865.995   -10424.496    7369.3017  0.079391917  0.074739275 
  412000    1389.1328   -10855.246   -10424.483    7414.1595  0.065541073  0.074682844 
  413000    1395.8967    -10857.34   -10424.479    7460.2336  0.076447766  0.074693606 
  414000    1385.9122   -10854.229   -10424.465    7507.0002    0.0687079  0.074657329 
  415000    1408.2675   -10861.149   -10424.453    7551.5619  0.078858544  0.074682637 
  416000    1394.1229   -10856.813   -10424.503    7596.0564  0.076631994   0.07469431 
  417000    1393.1078   -10856.487   -10424.491    7643.3731  0.066924992  0.074648064 
  418000     1381.996   -10853.005   -10424.455    7691.1356  0.071974685  0.074632245 
  419000    1416.9909   -10863.854   -10424.452    7737.0181   0.08252093  0.074678649 
  420000    1402.8928   -10859.484   -10424.454    7781.2789  0.083890084  0.074732517 
  421000    1401.6672   -10859.112   -10424.462    7826.8117   0.07370685  0.074726554 
  422000    1426.0018   -10866.676    -10424.48    7873.5808  0.067428163  0.074684367 
  423000    1407.0313   -10860.784   -10424.471    7918.1632  0.068533082  0.074649015 
  424000    1396.7222   -10857.591   -10424.474    7963.1125  0.066294169  0.074601273 
  425000    1424.5529   -10866.225   -10424.478    8010.4333  0.069649457  0.074573137 
  426000    1411.8104   -10862.289   -10424.494    8055.4198  0.079358042  0.074600171 
  427000    1408.8444   -10861.379   -10424.503    8097.6949  0.080988515   0.07463606 
  428000      1402.31   -10859.353   -10424.503    8144.9673  0.079803102  0.074664926 
  429000    1403.3222   -10859.638   -10424.474    8189.2792  0.079031219  0.074689184 
  430000    1407.8907   -10861.052   -10424.472    8236.3847  0.073286062  0.074681431 
  431000    1405.3957   -10860.293   -10424.487    8282.1235  0.075215407  0.074684365 
  432000    1437.8999   -10870.385   -10424.499    8327.1077  0.072662452  0.074673317 
  433000    1433.9484   -10869.171   -10424.511    8372.2713  0.067336573  0.074633443 
  434000    1399.1492   -10858.369     -10424.5    8418.6793  0.069022139  0.074603112 
  435000    1398.7201   -10858.212   -10424.476    8465.0155   0.07202211  0.074589235 
  436000    1426.5256   -10866.876   -10424.517    8512.9862  0.075685123  0.074595096 
  437000     1417.633   -10864.108   -10424.507     8560.355  0.072271658  0.074582737 
  438000    1381.3529    -10852.86    -10424.51    8605.8523  0.071769068   0.07456785 
  439000     1407.128   -10860.872   -10424.529    8653.1529  0.081723228   0.07460551 
  440000    1399.3934   -10858.445     -10424.5    8697.8394  0.080901448  0.074638473 
  441000    1384.5298    -10853.85   -10424.514    8743.7072  0.078244569  0.074657255 
  442000    1409.3665   -10861.562   -10424.525    8790.5421  0.068720721  0.074626495 
  443000    1417.1055   -10863.971   -10424.533    8838.4955  0.076196818   0.07463459 
  444000    1414.3734   -10863.104   -10424.514    8884.0305  0.075758771  0.074640355 
  445000    1368.8832   -10848.995   -10424.511    8929.3702  0.079874279  0.074667058 
  446000    1424.9845   -10866.412   -10424.531    8977.1863  0.074607308  0.074666755 
  447000    1403.3698   -10859.726   -10424.547    9022.9355  0.078025134  0.074683717 
  448000     1412.908   -10862.666    -10424.53     9069.123  0.073519106  0.074677864 
  449000    1395.6852   -10857.328   -10424.533    9115.9127  0.073681109  0.074672881 
  450000    1424.3486   -10866.229   -10424.546    9161.3838  0.069270011  0.074646001 
Loop time of 52683.4 on 1 procs for 200000 steps with 2400 atoms

Performance: 0.328 ns/day, 73.171 hours/ns, 3.796 timesteps/s
95.3% CPU use with 1 MPI tasks x 1 OpenMP threads

MPI task timing breakdown:
Section |  min time  |  avg time  |  max time  |%varavg| %total
---------------------------------------------------------------
Pair    | 52512      | 52512      | 52512      |   0.0 | 99.67
Neigh   | 143.44     | 143.44     | 143.44     |   0.0 |  0.27
Comm    | 13.136     | 13.136     | 13.136     |   0.0 |  0.02
Output  | 0.0055513  | 0.0055513  | 0.0055513  |   0.0 |  0.00
Modify  | 10.788     | 10.788     | 10.788     |   0.0 |  0.02
Other   |            | 3.914      |            |       |  0.01

Nlocal:        2400.00 ave        2400 max        2400 min
Histogram: 1 0 0 0 0 0 0 0 0 0
Nghost:        5093.00 ave        5093 max        5093 min
Histogram: 1 0 0 0 0 0 0 0 0 0
Neighs:         0.00000 ave           0 max           0 min
Histogram: 1 0 0 0 0 0 0 0 0 0
FullNghs:      259324.0 ave      259324 max      259324 min
Histogram: 1 0 0 0 0 0 0 0 0 0

Total # of neighbors = 259324
Ave neighs/atom = 108.05167
Neighbor list builds = 10117
Dangerous builds = 0
print           "Running average thermal conductivity: $(v_kappa:%.2f)"
Running average thermal conductivity: 9.32

write_data	Therm_${Tsim}_restartpoint.lammps
write_data	Therm_1400_restartpoint.lammps
System init for write_data ...

Total wall time: 34:05:36
