LAMMPS data file via write_data, version 29 Sep 2021, timestep = 450000

2400 atoms
3 atom types

0 21.95407205374063 xlo xhi
0 32.93110808061095 ylo yhi
0 43.90814410748126 zlo zhi

Masses

1 18.998403163
2 6.938
3 22.989769

Atoms # atomic

71 2 21.256810114361723 31.810062904902054 42.28913449361526 0 -2 0
695 3 3.354170988265351 2.183881489700781 2.201953578845331 0 -1 1
1647 1 5.482886077558068 2.943328690830615 2.539451346350844 -1 -2 2
1862 2 6.025474466787732 1.292028879434427 2.296868596091914 1 0 0
1432 1 6.957966366277705 2.106009173762145 0.8130969892396718 2 0 1
78 2 9.038046643425485 2.650560654063859 4.920087261105405 0 -2 -1
2005 1 6.318673092772057 3.335494496122937 5.614762279227518 0 1 0
743 1 2.848752913444913 0.2188975793723678 1.0982549994872082 0 1 -1
1927 1 6.355928990935397 32.35417602206156 1.2457567345737137 1 -1 1
927 1 8.955744864139822 2.5265469459354546 3.28683627804911 0 1 0
32 1 10.266679752787129 32.36256799237165 3.541499836107371 4 1 1
504 1 12.131434080329726 0.7628217210320384 1.8607060689984847 0 0 0
2255 2 11.707407467778873 2.115497143761064 0.5627545543308825 0 1 1
660 2 14.023772844095845 1.9648695216883203 1.5815173249894616 -1 -1 0
2383 2 15.338025194855849 2.982998266602458 43.84592300246357 0 -1 0
201 1 16.060790785301794 2.655303394057321 1.5596610492419272 -1 -1 0
2262 2 17.373852571093998 0.9993122629756518 3.086508516165569 -1 1 1
2151 2 21.036326105654208 2.548218815686937 0.39617648988904774 -1 2 2
1015 1 0.054234434412049774 3.5733932162760773 1.3604412349672041 -1 1 -1
1976 2 1.5370102897564284 3.5463046847145896 43.52468993917602 2 0 0
210 1 20.564730085237493 0.313127140068966 43.33932367589458 5 0 -2
1014 1 2.24874613132572 7.342724222594957 1.5350276995080614 3 -1 -1
1190 2 1.0231286848450503 5.567703080713786 1.116801454784733 0 2 -2
1206 1 0.49315785962047093 5.827712164836384 2.909160795806734 3 0 1
1932 1 5.757571940434192 5.479029258323161 1.0898204619149758 3 -1 2
377 2 6.52871506074015 6.263473971198925 43.06065113796898 1 -1 -1
1659 2 6.36959286253143 3.839384472169305 1.2487589148791944 0 3 1
643 1 7.420770372554059 5.579863904371049 3.704866637868211 0 1 0
2088 2 8.62095929463574 3.15769176997962 1.5126378065063408 1 0 2
480 2 9.800600965391629 5.744604967957071 0.5880031096311126 1 1 0
2083 2 9.169625064833143 5.287415024073739 3.9987451555633546 2 1 2
2012 1 10.933349695631497 3.894392391959029 0.46131747537564494 -1 3 0
618 1 13.538208065990146 6.663875305771186 2.811985773373626 0 0 1
1703 1 14.688863500164443 5.033752992935278 0.26417416877829825 0 0 1
1000 3 17.575700705528075 4.340865610761847 2.1465984574157067 -1 -1 1
1910 1 15.814450546312294 5.079944863298208 3.339928520926308 0 -1 1
1613 1 17.609598856318858 5.730032734329435 0.5066937873866698 -2 0 1
2188 2 16.199611015034886 5.66859376185223 43.25484852151721 0 0 -1
187 2 14.359034629556852 5.215241581416229 2.247391281905765 2 -2 1
1273 2 20.042351955572617 4.646377427891449 1.3232484458717666 -2 -1 0
2317 1 19.457792254041212 5.323114819162322 2.805247900036784 2 1 1
186 2 19.033533170157536 6.45836588508115 4.45613091462329 2 -2 -1
1073 2 20.76327234984168 6.7000326271207244 2.777634577953009 -1 2 0
525 1 0.9592082259629074 9.914102877909107 3.0566149134401677 3 0 0
243 1 1.947429380789504 10.617868606972864 0.2833173583926727 -1 1 0
1891 3 4.231164084213582 7.1897106899162395 1.4908599240654274 2 0 0
2025 1 0.7795008779010958 6.387346741654429 43.178864779988245 0 0 0
129 1 6.811806605934813 8.36609128534244 2.3646316856818794 4 -1 -1
2286 2 6.667236126198492 9.582283594909999 0.9725933369168119 1 1 1
464 2 3.471874069333689 9.055595913575205 5.203913183102805 0 1 0
1439 1 4.916252049905777 9.754704009868501 0.9776070751898233 0 0 0
936 1 7.617968808621592 7.537270693070162 43.40091977487775 2 1 0
2384 2 7.561556069086956 6.432254983540711 1.9701068194879812 0 1 2
1403 1 9.410832641645479 6.890289148523297 1.9849783951574662 0 -1 1
2040 1 7.21030250813977 10.249731002529971 43.148948208844416 -2 1 -1
3 1 12.506046371961306 9.344200473313874 1.7913312525933622 -3 0 1
1799 3 16.585837965587224 10.92891658333145 1.8924092702566628 -1 -2 1
1697 3 9.052544804758728 8.879777432584937 0.7444656709272175 1 0 0
470 2 13.878638213535984 8.561056211281487 2.4189975041187424 1 1 0
342 1 18.59068505906548 11.296585751384827 2.1298113281044144 2 0 0
1434 1 15.370714132483766 9.091716872310073 1.7439139557853505 0 -1 1
2155 2 18.886139982496484 6.891779915706421 1.7754344748903996 -1 -1 2
2271 2 19.777068924166596 9.733748354734319 1.1015996321234802 -2 1 2
1017 1 21.29410217188725 11.563992514230316 0.8740068707878325 1 2 0
520 1 20.41746231999539 8.269988314667506 2.1652087690550506 -1 0 1
195 3 1.076779127625408 7.541805028259663 3.8741746626883256 3 -1 1
202 1 20.587100044674123 12.048781965180098 4.206946032090324 0 0 0
1294 3 0.6940437981561981 8.639332576800788 0.5423093593649801 -2 -1 0
652 2 18.986039587986397 7.450269649871592 43.46926010310516 -1 -1 -1
888 2 1.172740071854021 11.30762006554284 1.4675115050585288 -2 0 0
2126 1 1.423671213962025 13.03847419610678 1.653556380879669 0 -1 2
594 3 3.1041001882941885 12.49446168535668 4.253090512164621 -2 0 -1
69 2 4.225212861458986 11.349513950324345 1.3978382973450136 0 -1 0
2216 1 4.192664499213302 12.898689909595534 0.41066730062725376 0 1 1
804 1 3.693398504546716 11.042977896964608 2.891373471517465 2 -1 1
1512 1 8.410051204490236 14.540193385891527 1.9751189003227743 0 0 -1
1266 2 10.24398848870718 10.869481971980512 43.012589321370506 2 0 -1
1248 1 6.548263515880419 14.100984708494522 43.48115557159592 -1 0 -1
1995 3 7.67963576477251 13.053724802784636 0.809290305550471 3 -1 1
1905 1 9.242343047460231 11.51546765350497 0.8334604222469311 0 -1 2
155 2 11.179829194698003 11.486540047921258 1.3508810779097475 -2 -1 0
940 1 11.70240178201596 13.173149947735832 1.5444299535102957 1 -1 0
1796 3 13.69105095923294 13.254203681396593 1.4657607013230352 1 1 1
450 1 16.586224864298366 13.234828278025313 2.3843908833424936 1 -1 0
1775 2 19.846571598565642 12.30296881700124 1.208357042694417 -5 0 -1
541 1 19.817166463802906 13.883852729829698 2.0569782210544445 -1 0 -1
1665 2 20.297889302028153 13.949916855608347 4.580124076723446 -2 2 2
809 1 14.746404793565521 11.60315267585378 0.003914879456334662 -3 0 1
2238 1 1.4528442076424746 14.180727076596861 4.594952859589291 0 0 -1
2396 3 0.11696027983926183 14.434842130665869 1.9512495082218397 1 1 0
748 1 21.85812811222316 11.905753090120285 41.81589525250398 -2 1 0
766 2 1.8193796277784249 15.311510664338682 43.011969067858374 1 -3 0
2003 1 2.159085401167035 18.420652162949917 2.0574007303547233 0 0 0
1249 1 21.4710956765805 16.589158731302394 1.591354217437628 -1 0 2
1275 2 4.432693250137462 14.715819006439148 1.3945809648850485 4 0 1
629 1 6.781561056597405 17.538912853048373 1.002575397003098 3 -1 1
209 1 4.435292952165206 14.182677714380498 3.2754166714017385 -1 -1 1
64 2 3.5812244143938554 18.421431772070946 3.2735143663785 3 -1 0
2107 1 4.795304356034079 16.924356934084432 2.8644589212097324 2 0 1
1027 1 2.8003668089873415 15.201493048730217 0.9967087363506928 -1 -1 1
1797 3 7.751238984772487 15.908427171435319 0.5005999173307153 1 2 1
2097 3 10.598141220183756 19.112345382379818 0.06526853992584704 1 0 0
1638 1 10.748767513878946 16.1127552579442 1.7253564759961406 1 2 1
161 2 12.472515991926864 16.54388115291639 1.6623703259996376 2 -2 -1
169 2 13.396213329527837 19.028244909493473 2.1259447240173492 2 -1 0
138 1 13.645153860823367 17.115086640812006 2.888198156536081 1 0 0
2206 1 16.478068683282086 17.805763258776356 1.2094862842890484 1 0 1
1427 1 17.161444197672107 16.11645071040632 2.8713798265417854 0 1 2
190 2 15.515456137953745 16.93712305482489 2.329136445696178 0 -2 0
79 2 18.152719531630606 14.279598189122126 1.5380669108577678 -3 1 0
46 1 0.06294667768595745 14.517399246270749 43.60564106826076 -1 0 -1
1060 2 20.565203223134677 15.783824380608433 0.19944149151903828 4 1 0
258 2 19.902637525981792 16.64276019247012 3.1274478021199483 1 1 0
1615 1 20.913267669313782 15.488593231128702 3.9853760285900193 -1 0 0
2150 1 20.89582472030443 16.74568830515502 42.48384722467665 2 0 0
546 1 1.4562540790575131 22.163642063860685 43.296421185890935 0 -1 0
1780 2 0.3430105012354481 18.15761652189462 0.3898867228474605 4 1 0
734 1 21.90378958452181 23.395203140859383 3.1706025582151494 -3 -1 -1
2385 2 3.860703465438048 23.528003216450465 2.43634187313078 2 1 1
623 1 4.734215063183557 19.576426742837032 1.854455731519608 -2 -1 1
5 1 7.285896749368099 20.769585390901206 3.3792441990297393 -1 0 1
1281 2 5.885839012104269 20.985935438473685 1.985563532866287 1 1 0
70 2 12.394632005371799 23.605102635681803 1.0614402286593334 -1 1 0
1915 1 9.721072979044532 19.656877280103295 2.1436592753746813 -1 1 1
596 3 9.240146074587244 21.750593813183848 2.463807590897726 2 1 -1
529 1 7.117888403350709 20.618351350955365 0.45517955113409453 2 -2 1
963 2 8.200250772961564 18.740110192247215 2.041995900145544 -2 -3 0
1720 1 11.205047391792258 22.329064806410525 1.3330820570893334 1 0 2
733 1 12.173404212747021 19.641577236823846 3.3453426614568356 0 1 0
658 2 12.942283796464995 21.502984070914714 1.0673155730638237 -3 0 0
1094 3 16.991862363408305 19.69580416024086 2.5196038661484437 -2 0 0
2084 2 19.351109355219045 20.88313337036483 0.8294569400359795 0 -1 1
1901 1 14.697805848638016 20.366700564367413 1.9950116814196317 -2 0 0
803 1 18.850450033648745 18.600947177305596 2.865108941588314 -1 -1 0
1029 1 21.197384654626003 19.83103091736491 0.8217590715579018 -3 -2 2
491 3 0.6752638805037801 19.413768779186036 3.4910310718970017 0 0 1
2031 1 17.617241375984694 21.560545909895232 1.75005540081573 -1 0 0
1819 1 2.5622819095212925 24.373468689065806 3.086075125009133 0 0 0
1195 3 3.689155844802038 23.273600579683233 42.08358684998054 2 -1 0
137 1 1.744116711642631 26.059464224290593 0.24041361796848135 1 1 1
1184 2 1.5113085489434828 20.60010099355549 0.37982638424119985 3 0 1
1961 2 3.587097766245867 26.11438502231953 3.1323765039994536 -2 -1 0
1062 2 1.102368027688741 24.6564958956314 3.8897803112456897 0 1 0
2232 1 4.434417325199148 24.98252985629218 1.3881845179818033 1 -2 0
2042 1 7.720347401381324 25.009202910851624 4.361494804432829 2 -1 1
642 1 4.5147714396196355 21.99901475790324 0.5171175317973147 0 1 2
1997 3 6.0924488383980036 23.599640392079756 0.8843738461140079 -1 1 1
1327 1 11.015216496929982 24.82002665282999 1.1630737132403848 2 -2 0
904 1 5.2508015973055375 22.70238473042993 3.181019837109647 1 -2 1
1605 1 13.65048241224599 22.805059196074215 2.1526185878027557 0 0 2
257 2 14.572622613658014 26.700612641927716 0.2828484239516612 1 0 1
1972 2 11.711325680950225 25.783001998010327 2.4674900555583608 -2 -1 1
866 2 11.987309730905645 21.275849645121866 3.9706904693679865 -2 1 1
283 2 20.099457763981164 23.08073955933113 2.317170032102243 -4 -3 0
2285 2 17.237353634615356 23.980735206888596 3.4317184219130645 -3 0 1
241 1 15.645978035541301 24.901751043314203 2.735371505760781 0 0 -1
1661 2 16.837129740820153 27.705621752080308 1.423033636303598 -2 1 1
1978 2 13.726503158309432 24.33397349531355 3.1009925365825266 -1 -2 3
2144 1 15.784978720761037 22.870729001654436 0.13308932566658369 -1 -1 1
2336 1 20.583508434286124 22.56073856469142 0.5041512940635242 -1 -1 2
900 3 0.7082164176290522 23.774102926972823 0.7509692887647669 2 2 0
634 1 19.69174283627372 22.527486400324808 4.259249415769278 0 -1 1
2060 2 5.592295740644645 26.55074395388439 1.1079357252056248 -2 1 0
242 1 3.368404584811594 27.493494000794456 2.066326525948612 2 -2 1
1786 2 1.11333727683192 26.853769674036183 1.8147089578262954 -1 0 1
992 3 2.3692948785899723 27.834105929915445 6.321283242023016 1 -1 2
1204 1 4.448963300244022 26.347014207889938 4.881774969469666 1 -1 -1
1727 1 5.990497831822617 27.988255604182626 2.2872738669935933 3 -1 -1
994 3 8.040662235720717 27.88380215000354 0.7130699275083426 1 1 1
697 3 5.422495363558208 28.333352387733754 4.206003977609641 -3 -1 0
1941 1 7.223966830733892 25.871250543429642 1.515133900891897 3 -1 0
150 1 9.771925056555324 28.70406080879609 2.295674870241568 1 -1 -1
1760 2 7.781957368303522 29.02523901995086 5.59174613022425 3 1 -1
1292 3 8.430278286122764 24.378176837463478 42.12832169335292 -1 -1 0
1561 2 13.997522368393144 27.285805464208423 2.9309591240444357 -4 0 0
1505 1 13.130198676184014 28.362717049735238 3.726493250180087 3 -1 0
2210 1 13.07261065059865 26.43335487863534 1.4758534654885345 -1 0 0
211 1 15.194368403345605 27.86013811900887 1.3142417445231087 -1 1 1
154 2 18.820555894175754 29.90024268305601 3.019456808819453 -2 1 0
153 2 17.04401250952907 28.970248772239156 3.7060009278436326 1 -1 1
1623 1 17.479306733786842 27.0078001757772 3.1861298839360743 -2 1 2
2342 1 18.76977964508509 28.509755688970003 0.7727626033840287 0 1 1
314 1 21.790135391092676 28.112219320011718 1.3298326168463415 0 -2 0
730 1 18.923720893408426 24.39644987286946 2.2633188097562975 2 1 1
1706 1 20.29988226591148 28.854390907247033 3.6725478585891125 2 1 0
1664 2 20.764020165640073 28.77091913328358 43.7744295648856 1 3 -1
1111 1 3.6445759709975203 30.563654773581792 5.331537897732223 -1 0 0
1879 2 2.8099790099484365 30.054073971312526 2.3676136502898206 1 0 0
344 1 0.9353282831684666 30.74181169782378 3.037152410353314 -2 0 0
2313 1 0.21594609242492432 0.9776223028182811 2.202970383068547 -1 1 1
67 2 5.511231977922001 31.859205427065348 3.048561362422357 0 -1 1
313 1 4.17168498514476 31.154906738010595 1.9372826822944713 0 -1 0
355 2 6.865515113940683 30.69170846646518 1.242662969194308 -1 0 0
1490 2 12.970093879576456 32.20852249376112 0.5336771220352454 -1 2 1
687 2 10.353281371751333 29.53130927382303 0.7780424270055158 2 -2 1
2152 2 8.85260704460096 30.4542920001078 3.010153172319227 0 0 0
2329 1 8.74772225734216 30.833423134921606 1.09414971417001 -1 0 1
721 1 7.007571755365109 30.992897005579533 3.5862922713031318 -1 -1 1
1691 3 12.518514561916867 29.66144727370175 2.475108812915982 0 -1 1
526 1 14.309615085042944 30.24735196253757 0.6269583308417566 1 0 0
1849 1 12.651837016263011 31.522003623660243 4.02789288544584 -1 -1 0
447 1 17.378938490400838 32.85419181765327 1.0456272833827513 1 -1 1
585 2 15.488610502681139 28.689734479968166 43.54876332355759 -1 -1 0
1971 2 16.102577559814208 31.057363808975047 0.705644920284645 -1 -1 0
1894 3 19.253757928228293 31.793350552763833 0.7537409315825523 1 -2 0
1524 1 17.067932831119133 30.112378044580502 2.348710523503042 3 0 1
287 2 21.816727665711756 32.00614736077776 2.799927511552384 0 -2 -1
1150 1 19.61350022662364 31.680847871158598 3.141572213647515 0 -1 0
460 2 0.03700815294465443 29.10792004797073 3.1669872563844224 2 2 -1
203 1 21.508882217986763 30.672183051730304 43.68430081685657 -1 0 -1
29 1 2.3446554821308982 0.5702321879279308 5.681393624313972 -2 1 0
164 2 2.727715084578294 2.2905280487515807 5.65084954251876 3 0 -2
1522 1 2.0364456835660056 2.561427397446223 4.032678654365346 4 2 0
1679 2 3.039680572251246 3.7791636717080483 8.764378209365695 2 4 0
435 1 21.610495331591753 31.655809685373114 8.53482964046156 -1 -1 -1
2041 1 3.2511578038813087 1.0428824461311565 8.909755226841853 3 1 0
978 2 0.5923333347900094 1.0335610300010076 5.5126125891380475 -1 -1 1
2010 1 5.321075853189183 0.4015977066976956 3.7022559522457748 1 1 1
882 2 2.9669362270150845 32.908153771216085 7.246216465437461 -1 1 0
2341 1 8.419902603032636 1.198027514605317 5.819364839513576 4 2 1
1154 2 5.53685753213898 2.1566581438280203 6.629031444948915 -1 1 -1
518 1 3.9193578514158927 3.3163158930211827 6.436544337757268 0 2 0
1504 1 11.228741751324206 2.431533674743236 4.864733614471312 -1 0 1
797 3 8.296624141760338 2.8341017504881276 8.132020382120652 0 -1 1
1869 2 11.950368042589421 3.3163519194681323 3.3269533569611034 -1 0 0
171 2 12.052721750523446 1.1683778419968007 6.212189710895854 3 2 0
1946 1 13.788053897232597 1.1634812344039345 7.065468752910844 -2 0 2
1477 2 13.000990569044305 0.2419381926168485 3.6698440801081578 2 1 1
1051 2 14.972359967970084 3.415126043656275 3.5700728880381667 0 2 1
777 2 19.922269852773653 32.26617207025165 4.825610542843801 3 0 2
1031 1 14.613528781349151 0.9515917523318643 3.318255361602507 -1 0 0
2123 1 19.473376195600782 3.118083928132398 0.8099502375491603 -2 0 0
74 2 21.735584706522975 2.6237592055969974 2.8668262911640783 0 1 0
573 2 20.804448848182133 32.446018465962105 6.954234910897654 1 3 -1
2112 1 20.882980904788653 2.76554682091951 4.400549731974969 0 -1 0
2184 2 18.754238243912205 3.6019359623803666 4.556704659533377 1 -1 1
1527 1 0.6350924942829558 2.782288251919215 7.023855596626784 1 -1 0
1291 3 2.984167815530147 4.7469030186209755 3.0429268957896958 1 2 0
1489 2 5.399177553384342 9.670751641175418 3.3688504426862727 0 0 1
1848 1 4.514338951294077 4.549264354146239 8.785457445741011 -3 0 1
967 2 2.7941483245496257 5.842394488566763 6.712891803374082 0 1 1
2096 3 6.027483968073998 4.829626158419118 7.2056276253903375 -1 1 1
1553 2 6.324954299227724 4.03053283752389 4.073824518435212 -4 1 -1
304 1 4.560501150378048 5.633615403583827 4.298156362026129 1 0 0
685 2 8.908055679305201 6.550567041191135 6.481986430713224 2 0 1
318 1 9.623491337948044 4.605149769584713 5.654492071541377 4 0 -1
2169 2 9.565329429791772 0.3023563651535959 7.035101142694141 0 0 0
1125 1 13.604327118233709 3.5339970984739013 2.6321847616729106 1 1 1
2035 1 11.029797679626284 4.9579559843394625 3.6160115998525075 0 -1 1
2362 2 11.561382551696587 4.001836041780998 5.519173443509267 2 1 1
139 1 14.416402044394133 3.4119143462705837 5.521827995392916 1 0 -1
1495 3 13.235375910055655 7.088750390712275 5.64106149510989 -2 0 1
348 1 9.785530029004583 5.765554873738149 8.042056713747957 -1 0 0
1001 1 17.987782097996142 7.458414965211219 3.452160455314234 1 1 -1
630 1 15.724972424338251 6.947730912210778 6.10783505102711 -1 -1 1
72 2 16.664520795325185 3.9142207804339613 4.985057973427959 0 1 -1
442 1 18.25269865503066 5.129068464933742 5.447442509811616 0 0 0
244 1 17.23911575766575 2.9373641630059404 6.120804741125636 -1 0 1
1621 1 20.471781286619013 7.338490374991406 5.145208097754189 -1 0 1
1297 3 0.15078144813767505 4.376692387384406 4.799890158997829 3 0 1
1931 1 19.92522390810328 0.861137749816071 6.945747014122484 -1 0 1
654 2 20.767078418347598 7.124432828837509 6.833701645093646 -1 0 -1
813 1 0.8775608049400601 6.237256230815145 5.861509317635611 1 2 0
2171 2 2.8164371784592688 9.458055907565772 2.4872873524916312 -1 -1 1
2007 1 2.052818435456937 10.564481605048545 5.940271501429612 0 -1 0
1800 3 1.949877529844396 8.081393571402169 8.744832941561643 0 1 -1
614 1 3.7940050219653685 8.36720351924819 3.6769046779164403 0 -2 1
1612 1 6.562838474572325 11.298535562724483 2.922120014166765 0 0 0
1139 1 5.669122093084628 8.992864942339866 5.120345194087113 1 0 1
1159 2 9.282376192134333 8.232932703448098 3.2830918251058456 1 -2 2
2111 1 7.268788948233797 6.339511500315574 7.40149827813745 -2 0 0
492 3 6.123494916100796 7.163612233055467 4.162364120888768 0 -1 1
1272 2 12.488578463644412 9.300275439671479 3.985471998537333 -1 0 -1
1576 2 11.784250722318406 6.566680816979254 3.097831508112346 -3 1 0
2020 1 8.755787951435966 7.8664775506840074 5.275494107021309 -1 1 1
870 2 10.78139143596034 8.876778583392662 5.595228335014076 0 3 1
527 1 11.322534919629268 7.943611755825965 4.217966919382168 0 0 -1
1148 1 14.185523302897572 9.07322043493984 4.6177354441135305 -2 0 1
1570 2 16.658226023149886 6.469441350360422 4.257001155889332 0 1 1
2378 2 17.894879555775685 12.348047834646444 3.6066636047292686 -1 -1 1
399 3 19.253323696865433 9.41921156044178 4.204269466174807 0 -1 1
731 1 17.679154855323823 8.66004172139741 6.164728473387399 -2 -1 1
1902 1 2.055719562837252 13.276265662272136 7.314138377352385 -1 -1 1
2309 1 4.765575831412489 12.239954267107533 6.17732077777995 0 1 0
786 2 0.9640856608972922 10.516474705373735 7.469967484589663 2 0 -1
903 1 3.8794116362722484 15.275922403819939 5.954917358456571 0 0 -1
183 2 2.360370456145634 14.868596084097499 6.193070685003186 0 0 0
892 3 6.1326101082501845 13.102608351286852 3.9467040815946586 0 1 1
1178 2 5.687826770938278 14.52848716101986 6.237306603934864 0 0 1
810 1 6.842492397180624 15.110291798332605 4.812698394535221 0 0 1
2227 1 9.66335251237819 9.896433240451676 2.8121962069956616 1 3 1
1063 2 10.211051978271573 11.453802228531545 6.010660033375703 0 1 -1
1954 2 8.551680127180674 11.190271951638769 3.3618782143059396 1 2 1
708 1 8.610374828096228 11.324625046813981 5.2462582598117695 -1 0 0
159 2 8.86222095867998 14.16398205283341 8.271489969240509 0 0 -1
1648 1 11.899416645018272 10.449313197722583 5.567483857513959 -1 1 1
256 2 10.178382716215715 14.554974510896777 2.1640071058454105 1 2 0
2120 1 10.27263546454817 14.801082063798011 3.9546853782691525 1 0 0
232 1 10.767320164022328 13.103002843010112 6.87320271658644 3 1 1
1091 3 12.992480025266143 12.451367677098107 5.075640854715018 -3 1 0
2062 2 15.633833751384175 12.928260155273973 3.8870167974482146 0 0 1
12 1 16.572246541211424 11.054025954003869 4.281862575845029 -3 -1 -1
2207 1 14.203952902258482 13.5563322110133 3.497045926550219 2 0 0
2078 2 15.444115745650194 14.36872473458964 6.389880912651274 -4 0 1
1370 2 0.47231127767013004 10.918628015934257 5.176784920376924 1 1 3
1880 2 0.040825497533959205 13.160797298483967 7.280174798671656 1 -2 2
2032 1 20.571435856204303 14.051588136578555 6.523807965755748 1 0 0
457 2 19.795002052669275 12.102128526376223 5.820865012656536 0 1 -1
2332 1 1.9078845467919687 17.15100228115109 4.731497765780432 1 0 1
193 3 1.2104607388104884 16.627856946406826 2.9293226220482773 1 -2 -1
1176 2 3.047455591715426 17.680952465431847 6.2238133495999115 1 3 0
657 2 3.8277296397627074 15.62388381306567 4.187558664396925 -1 0 0
236 1 4.284598048459976 18.59375801917437 7.112879816125054 1 0 0
156 2 7.464609833082916 15.945014574986136 6.205904560321904 1 0 0
212 1 8.539960951651322 17.488736964871144 3.336622295710225 -1 -2 0
1055 2 10.451988478358105 17.061734327064308 3.302934529407367 0 -1 1
2033 1 8.772000181487822 16.81982282878356 5.819719018429832 0 0 1
418 1 7.464495879918628 19.222238438348217 6.785730917032189 -1 0 0
259 2 8.418289661965506 15.151249616454148 3.697980252376587 0 0 1
1376 2 8.526968840660329 18.52552797890749 5.389081793755282 0 -1 0
1795 3 13.543825026921967 17.364449601370886 4.953073425374507 0 -1 0
1088 2 10.194087795112695 15.69423211038712 5.524739787701315 0 0 0
1823 1 11.206793009924722 17.31142188383828 5.10651317271435 0 -1 2
891 3 15.60195494529344 16.383681188740482 7.7024370764832435 -1 0 0
2132 1 17.152426484097706 14.317559478507224 5.02780992848303 2 -3 1
690 2 17.369299842311115 15.97045911651562 4.620065676922548 -2 0 -1
846 1 15.56096426820284 15.955419771862635 5.400809209939752 -3 0 0
2343 1 0.3678155070895146 15.53492165530896 8.078799158951 0 0 1
1881 2 19.234790416896782 18.83210451824064 4.65307022788797 0 -1 1
130 1 18.82235632169494 16.830235385897172 5.311004764995037 1 -1 1
899 3 21.93851706068156 15.915060777238246 6.0124012620829115 -1 -2 1
703 1 20.73936473638399 17.81224195850648 7.280410741444526 -4 -1 0
1803 1 1.8979067096938573 21.2873146348361 2.005979005615889 1 0 0
1868 2 21.839117680480967 19.143644924242366 6.968088075678679 2 2 0
1341 1 0.7227706117732711 20.696235550030416 7.243144759740306 1 0 0
1465 2 2.118797102446545 21.40685585431758 6.0399317376764134 -1 1 -1
688 2 5.911624192373213 20.65272918401834 4.433210697630748 1 -1 -1
1387 2 5.393044352335679 22.41764314729224 6.868027844460694 3 -1 1
1571 2 5.810231778073258 19.509073216792775 6.957408263477917 1 0 1
2229 1 5.08907951596133 20.79418782156038 5.886887517414759 3 0 1
1089 2 5.464117978644651 18.145010846109177 2.0919303154326627 -1 1 0
1811 1 9.209016765386586 21.10360237896952 9.315592181739122 -1 1 0
1035 1 9.877325067085499 19.829033740510546 6.024678929398677 1 1 1
1086 2 9.905585197150415 19.7084962622785 7.896899248408073 0 1 1
2034 1 12.804094473356816 18.950465068153257 6.713622837302391 1 -1 1
2280 2 11.202148547843155 18.90633807474034 4.939461264949539 -4 1 1
16 1 12.468701183613986 24.295875386640304 9.392485983375064 1 -2 -1
172 2 13.766977884319987 20.02589575898007 5.6541915073095215 2 1 0
1526 1 18.002297158655054 20.06237417547756 5.562031961349046 0 0 1
1251 2 16.218232810614815 19.374833083185855 6.3585741565516525 2 2 0
50 1 15.091778701284143 18.88863751694256 5.033564858797781 -1 -1 -1
784 2 15.066126203982115 21.719783115414547 5.562545884528962 -1 0 0
68 2 18.18179531208685 21.717653417710515 4.500038467637325 3 -1 1
1533 1 20.963838397510308 19.379038147358344 4.8446375892566085 2 0 0
282 2 15.89028688727223 21.132021985976007 9.08488248451132 0 0 0
583 2 1.7214031650371957 22.4531738415819 3.478542050404191 -2 2 -1
2021 1 0.9231861433407033 25.957041292925815 6.404567349996365 0 1 0
253 2 5.069321855603377 27.33525146555703 8.556765313794132 -1 0 -1
2037 1 1.1679714494734896 22.695029078052336 5.35837619771929 0 0 0
561 2 21.513765656334762 21.58662074070525 5.422903382758751 0 -1 -1
1769 2 1.0787269826148245 24.144630860768835 7.224133278744949 1 -1 1
1024 1 4.397368169677131 24.12835117665975 6.801794265992604 3 1 1
1364 2 7.046945853884031 22.859594501820762 3.8052133321223334 2 0 0
1231 1 7.054693908856238 22.72096197244783 5.780900515790481 1 -1 0
1179 2 5.5662202071248466 25.210840571521977 5.988582412317753 2 -1 -1
246 1 8.251423596965727 23.477846804481846 1.8249557101470086 -2 -1 1
192 3 8.869776419621921 21.792480206310497 6.14142213001949 -1 0 0
1122 1 10.259725034088312 25.742770613758523 5.8374063542971655 2 1 1
920 1 13.517516027223882 21.592298351600533 5.064425789697924 1 -1 1
1530 1 10.649449103489054 22.420060268490804 4.409653571070097 0 0 1
1544 1 12.556501747554462 25.266893463567094 4.098481639031265 -2 0 0
2030 1 10.492122163946325 22.87557584956599 7.453986664248795 1 -1 1
1794 3 11.604468653564302 24.062461000257407 5.892618984363848 -1 1 1
950 1 16.31301502444243 22.364945146796412 4.513625378914704 1 -2 0
645 1 15.49015934032186 20.78993164821762 7.366712161071186 -1 -2 3
484 2 16.97516711285783 24.02934967102723 6.528010359186355 -1 0 0
2340 1 17.673135700985952 24.802496658463966 4.862205184032669 2 0 0
1409 1 1.0349027652788854 26.492165961905986 3.44692835421641 0 1 2
575 2 19.619248717432804 24.630583135358364 3.956561444736597 -2 -1 -1
1349 1 18.31977484678751 24.635951265007414 7.373741346774422 1 0 0
1246 1 21.265610115443152 23.8648810923 7.96072759162102 -1 -1 0
1730 1 3.5570718842653464 28.450658777306582 8.226774049696687 1 0 2
2251 2 21.743308993626563 29.449141815404424 7.121703226940741 -2 0 0
1368 2 7.151106979035374 26.45963077575451 3.3303422546946777 -1 -2 0
1779 2 7.863408663666533 26.680480866588276 6.040780763923168 1 0 -1
1420 1 6.46642192387714 26.496898227247684 7.348789628103089 -1 -2 1
182 2 8.967657368356242 25.0375535474113 1.38527401416412 2 -3 1
1887 2 11.068391458492629 26.57346147256765 7.307784496661856 -1 1 -1
946 1 12.982233442013674 25.992847189947025 6.973084150594085 1 -1 0
1551 2 9.55717681466533 25.15155916067074 4.204472814491549 0 -1 1
467 2 9.664264260130247 28.11459901665299 3.9907858568026975 -4 -3 0
821 1 8.006787895620969 27.53999334732213 4.573937274174247 1 -1 0
503 1 8.2448219156127 28.64592843804824 7.390558730180231 0 0 0
2321 1 10.271768651976316 26.561031187126776 2.9568243408876707 -1 0 1
1070 2 13.626961330655284 26.073451286526364 5.455079339940789 1 1 1
226 1 11.09072771631136 28.73005695656359 7.217761777898 0 0 0
1267 2 12.043660927750205 30.420295998836973 8.134222806462462 1 -2 0
1731 1 14.075505320074935 29.25872327482951 7.432764467063012 -1 1 0
1181 2 16.48167905123031 26.085345214105658 4.079301196400155 -2 0 1
1986 2 18.87161869177754 26.023637578340043 5.919998560737741 -1 0 1
2208 1 17.72453801835383 28.51810907257132 5.575731989551411 -2 0 0
128 1 20.493243234431922 25.60398787301012 4.979552241575495 -1 -2 0
1595 3 19.535152270198534 26.742989523728696 2.038798955895839 -1 -2 0
1134 1 0.6791663262584193 29.17149741631579 5.369927694230366 0 0 0
181 2 21.474397926609463 24.400365879735315 10.440449580845447 -2 1 -1
1696 3 21.617331828656777 27.26645460820984 4.928655210905358 3 1 1
1223 1 20.91894902869657 26.193901508723652 9.919740344647494 -1 -1 0
2064 2 4.06940775757823 32.54231173165978 5.047469885743509 1 1 -1
1540 1 2.9338086920550004 31.298549466875283 7.863541242875207 0 -2 0
297 3 4.5934341164746 30.121485487670107 7.548746548851028 -2 0 1
97 3 6.739184924343221 31.726602046622173 5.7200584141690936 0 0 -1
1301 1 6.084793277749737 29.171201066028736 6.030345091333861 -1 0 0
1348 1 4.934543527383938 0.08710023727250493 6.61530406825246 2 2 0
2061 2 9.403649551808945 29.887255284247253 7.180070763309882 1 0 0
818 1 8.150316592580781 31.318307399180885 7.357552287422692 1 1 0
2211 1 9.257987331780667 29.936456647727194 4.743234874390744 -1 -1 1
1878 2 9.522799264145073 0.999076150524194 4.110136516699156 0 -2 0
261 2 10.966363700247914 31.413063436246993 4.94818387783717 -1 0 1
322 1 11.915514119828 30.710841902648998 0.6942454213070725 2 0 1
118 1 11.198506014818513 32.5524094097416 6.265827012267919 1 1 0
1603 1 17.79022400218295 2.6779157493420684 3.5050291750904243 -2 -1 1
1599 3 14.979212631742444 31.940023819317656 3.5876176459245737 -1 -2 0
1832 1 15.38163832593513 30.147944723596364 4.902879335412032 1 -1 1
593 3 13.042734054660313 29.11280596883534 5.581680395315024 0 -1 0
1256 2 1.8299008924527267 30.659942165540766 5.446227976461726 -4 -1 0
301 1 21.779726691368165 32.205886369198744 5.611915359885452 -1 0 -1
363 2 1.309112330522725 1.533108450715096 9.701714362794453 1 0 -1
1419 1 21.531137866273287 1.5647555864714993 9.615415133790208 1 1 1
686 2 3.8920631676480815 0.42183007810411494 10.455826091512693 0 2 1
633 1 3.748957212108652 32.789648703545105 13.842082749169832 -1 -2 0
338 1 6.007732769009631 3.4697468775179416 11.48292321779042 0 2 0
488 2 6.038347956348976 3.563680243566821 9.677410474169337 0 0 -1