FLiNa to FNa ratio: 1

100 atoms 
0  bonds
0  angles0  dihedrals
0  impropers

3 atom type
0  bond types
0  angle types
0  dihedral types
0  improper types

0.0 11.083248357172083 xlo xhi
0.0 11.083248357172083 ylo yhi
0.0 11.083248357172083 zlo zhi

Masses

1 18.998
2 6.941
2 22.99

Atoms

1 1 35.969 -234.058 99.986
2 1 -104.796 119.836 160.732
3 1 -24.149 103.6 -27.899
4 1 7.988 156.77 111.975
5 1 -108.881 228.487 -23.801
6 1 -11.75 272.907 75.395
7 1 -191.937 247.503 -81.004
8 1 -11.564 169.561 58.635
9 1 84.095 -40.444 8.468
10 1 122.648 57.334 -37.809
11 1 64.48 -52.859 52.634
12 1 151.697 320.274 38.509
13 1 -90.866 66.636 -146.839
14 1 -10.478 6.387 110.046
15 1 79.905 4.213 -46.246
16 1 191.135 70.762 83.939
17 1 5.59 207.257 76.687
18 1 181.93 -54.25 -11.172
19 1 -59.318 -147.55 -22.911
20 1 102.056 -16.656 4.698
21 1 21.333 31.688 81.677
22 1 291.052 -83.957 -134.377
23 1 162.225 153.227 283.518
24 1 -15.177 273.976 19.559
25 1 298.753 50.664 15.941
26 1 126.565 150.485 169.138
27 1 -43.942 -83.853 -1.262
28 1 129.899 -6.959 4.714
29 1 62.808 85.51 149.047
30 1 76.479 119.662 141.205
31 1 -28.875 7.497 170.965
32 1 -24.266 -44.333 -59.081
33 1 73.856 5.126 -136.607
34 1 -80.337 -2.619 69.982
35 1 126.957 -33.289 271.176
36 1 163.363 -29.858 -162.477
37 1 100.935 -61.365 -7.771
38 1 188.674 -21.954 61.959
39 1 84.163 281.685 168.136
40 1 -99.077 -67.211 9.661
41 1 49.725 36.171 -55.304
42 1 217.861 -52.801 36.222
43 1 -23.113 -23.569 35.294
44 1 86.155 -76.071 74.927
45 1 126.235 207.772 -7.772
46 1 239.138 125.095 27.644
47 1 30.007 205.153 130.166
48 1 22.152 -103.447 -235.572
49 1 -1.858 117.352 69.656
50 1 42.497 110.356 249.19 
51 2 103.408 84.052 0.868
52 2 23.783 -47.478 -9.954
53 2 304.969 114.65 23.494
54 2 -177.039 244.933 -188.799
55 2 245.08 133.561 -115.508
56 2 -72.847 -122.4 109.733
57 2 25.774 16.026 -80.341
58 2 -41.226 90.794 -95.245
59 2 -7.499 233.464 112.77 
60 2 4.447 157.824 -179.651
61 2 262.616 -86.048 131.232
62 2 -33.924 0.805 -121.422
63 2 -10.261 80.841 33.468
64 2 83.149 318.227 230.892
65 2 -103.825 122.935 139.724
66 2 -69.488 -19.787 -46.077
67 2 -7.547 185.842 -178.498
68 2 -104.52 -49.226 267.217
69 2 -36.448 -62.048 -67.291
70 2 175.116 -44.784 -149.127
71 2 -63.06 174.316 118.691
72 2 -142.586 171.013 207.19 
73 2 -27.883 28.655 185.081
74 2 -38.547 121.114 94.525
75 2 37.851 146.428 321.261
76 3 101.553 -118.696 189.919
77 3 -1.647 102.98 88.894
78 3 109.887 33.193 -85.271
79 3 26.467 -204.407 -21.959
80 3 38.1 -81.213 130.823
81 3 97.153 119.607 152.591
82 3 67.031 -67.289 197.812
83 3 370.736 252.221 -199.765
84 3 -4.006 104.802 17.079
85 3 21.548 99.336 118.949
86 3 279.042 -10.67 87.989
87 3 -59.477 -158.598 45.335
88 3 1.226 179.971 353.714
89 3 22.648 198.623 206.533
90 3 -201.96 318.614 22.709
91 3 11.427 14.603 344.813
92 3 61.943 338.188 245.478
93 3 202.636 92.286 -43.161
94 3 -71.538 -75.839 -82.384
95 3 23.451 -23.75 170.141
96 3 227.303 36.131 -1.204
97 3 80.18 304.583 139.678
98 3 191.753 -348.746 396.108
99 3 61.456 266.677 92.713
100 3 114.127 95.477 62.637