LAMMPS (29 Sep 2021 - Update 2)
OMP_NUM_THREADS environment is not set. Defaulting to 1 thread. (src/comm.cpp:98)
  using 1 OpenMP thread(s) per MPI task
# lmp -in therm.lammps
# Muller-Plathe method via fix thermal_conductivity

# conda activate nequip_cuda10.1
# export CUDA_VISIBLE_DEVICES=2
#   lmp -in run_therm_1100
# nohup lmp -in run_therm_1100 > therm_1100_job.out #job =25768
# 1) Initialization
units metal
dimension 3
newton off on
atom_style atomic
boundary p p p



# 2) System definition
read_data	Therm_1100_restartpoint.lammps
Reading data file ...
  orthogonal box = (0.0000000 0.0000000 0.0000000) to (22.166497 33.249745 44.332993)
  1 by 1 by 1 MPI processor grid
  reading atoms ...
  2400 atoms
  reading velocities ...
  2400 velocities
  read_data CPU = 0.013 seconds

# 3) Simulation settings
pair_style	nequip
pair_coeff	* * FLiNa_f_pyt10.2 F Li Na #Li F Na

# 4) NPT:
thermo 1
minimize 1.00e-9 1.0e-9 1000 10000000
WARNING: Using 'neigh_modify every 1 delay 0 check yes' setting during minimization (src/min.cpp:188)
Neighbor list info ...
  update every 1 steps, delay 0 steps, check yes
  max neighbors/atom: 2000, page size: 100000
  master list distance cutoff = 7
  ghost atom cutoff = 7
  binsize = 3.5, bins = 7 10 13
  1 neighbor lists, perpetual/occasional/extra = 1 0 0
  (1) pair nequip, perpetual
      attributes: full, newton off
      pair build: full/bin/atomonly
      stencil: full/bin/3d
      bin: standard
Per MPI rank memory allocation (min/avg/max) = 5.111 | 5.111 | 5.111 Mbytes
Step Temp E_pair E_mol TotEng Press 
       0    1101.8057   -10666.116            0   -10324.452    11168.801 
       1    1101.8057   -10728.624            0   -10386.959    11168.801 
       2    1101.8057   -10798.402            0   -10456.738    11168.801 
       3    1101.8057   -10847.479            0   -10505.814    11168.801 
       4    1101.8057   -10878.647            0   -10536.983    11168.801 
       5    1101.8057   -10902.352            0   -10560.687    11168.801 
       6    1101.8057   -10918.783            0   -10577.119    11168.801 
       7    1101.8057   -10926.641            0   -10584.976    11168.801 
       8    1101.8057   -10933.301            0   -10591.636    11168.801 
       9    1101.8057   -10938.959            0   -10597.294    11168.801 
      10    1101.8057   -10944.414            0    -10602.75    11168.801 
      11    1101.8057     -10948.9            0   -10607.236    11168.801 
      12    1101.8057   -10953.712            0   -10612.047    11168.801 
      13    1101.8057   -10957.395            0    -10615.73    11168.801 
      14    1101.8057   -10962.043            0   -10620.378    11168.801 
      15    1101.8057   -10965.214            0   -10623.549    11168.801 
      16    1101.8057       -10970            0   -10628.335    11168.801 
      17    1101.8057   -10973.195            0   -10631.531    11168.801 
      18    1101.8057   -10977.146            0   -10635.482    11168.801 
      19    1101.8057   -10979.736            0   -10638.072    11168.801 
      20    1101.8057   -10982.124            0   -10640.459    11168.801 
      21    1101.8057   -10984.775            0   -10643.111    11168.801 
      22    1101.8057   -10986.516            0   -10644.851    11168.801 
      23    1101.8057    -10989.34            0   -10647.675    11168.801 
      24    1101.8057   -10990.644            0   -10648.979    11168.801 
      25    1101.8057   -10992.989            0   -10651.325    11168.801 
      26    1101.8057   -10994.203            0   -10652.539    11168.801 
      27    1101.8057   -10995.973            0   -10654.308    11168.801 
      28    1101.8057   -10997.213            0   -10655.548    11168.801 
      29    1101.8057   -10998.783            0   -10657.119    11168.801 
      30    1101.8057   -10999.859            0   -10658.195    11168.801 
      31    1101.8057   -11001.243            0   -10659.579    11168.801 
      32    1101.8057   -11002.396            0   -10660.731    11168.801 
      33    1101.8057   -11004.083            0   -10662.418    11168.801 
      34    1101.8057   -11005.635            0    -10663.97    11168.801 
      35    1101.8057    -11007.47            0   -10665.805    11168.801 
      36    1101.8057   -11008.538            0   -10666.874    11168.801 
      37    1101.8057   -11010.529            0   -10668.865    11168.801 
      38    1101.8057    -11012.44            0   -10670.776    11168.801 
      39    1101.8057   -11013.912            0   -10672.248    11168.801 
      40    1101.8057   -11015.443            0   -10673.779    11168.801 
      41    1101.8057   -11017.016            0   -10675.351    11168.801 
      42    1101.8057   -11017.822            0   -10676.158    11168.801 
      43    1101.8057    -11019.12            0   -10677.456    11168.801 
      44    1101.8057   -11019.623            0   -10677.959    11168.801 
      45    1101.8057   -11020.646            0   -10678.981    11168.801 
      46    1101.8057   -11021.585            0    -10679.92    11168.801 
      47    1101.8057   -11022.562            0   -10680.897    11168.801 
      48    1101.8057   -11023.371            0   -10681.707    11168.801 
      49    1101.8057   -11024.353            0   -10682.688    11168.801 
      50    1101.8057   -11025.304            0   -10683.639    11168.801 
      51    1101.8057   -11025.892            0   -10684.227    11168.801 
      52    1101.8057   -11026.558            0   -10684.893    11168.801 
      53    1101.8057   -11027.519            0   -10685.854    11168.801 
      54    1101.8057   -11028.207            0   -10686.542    11168.801 
      55    1101.8057   -11028.806            0   -10687.141    11168.801 
      56    1101.8057   -11029.336            0   -10687.671    11168.801 
      57    1101.8057   -11029.774            0    -10688.11    11168.801 
      58    1101.8057   -11030.249            0   -10688.584    11168.801 
      59    1101.8057   -11030.721            0   -10689.056    11168.801 
      60    1101.8057   -11031.271            0   -10689.606    11168.801 
      61    1101.8057   -11031.863            0   -10690.199    11168.801 
      62    1101.8057   -11032.435            0    -10690.77    11168.801 
      63    1101.8057   -11032.745            0   -10691.081    11168.801 
      64    1101.8057   -11033.053            0   -10691.388    11168.801 
      65    1101.8057   -11033.448            0   -10691.784    11168.801 
      66    1101.8057   -11033.701            0   -10692.037    11168.801 
      67    1101.8057   -11033.911            0   -10692.247    11168.801 
      68    1101.8057   -11034.357            0   -10692.693    11168.801 
      69    1101.8057   -11034.646            0   -10692.982    11168.801 
      70    1101.8057   -11034.909            0   -10693.245    11168.801 
      71    1101.8057    -11035.38            0   -10693.715    11168.801 
      72    1101.8057   -11035.803            0   -10694.138    11168.801 
      73    1101.8057   -11036.114            0    -10694.45    11168.801 
      74    1101.8057   -11036.365            0   -10694.701    11168.801 
      75    1101.8057    -11036.56            0   -10694.895    11168.801 
      76    1101.8057   -11036.808            0   -10695.143    11168.801 
      77    1101.8057   -11037.076            0   -10695.412    11168.801 
      78    1101.8057   -11037.312            0   -10695.648    11168.801 
      79    1101.8057   -11037.752            0   -10696.087    11168.801 
      80    1101.8057   -11038.104            0    -10696.44    11168.801 
      81    1101.8057   -11038.311            0   -10696.646    11168.801 
      82    1101.8057   -11038.722            0   -10697.057    11168.801 
      83    1101.8057   -11039.062            0   -10697.397    11168.801 
      84    1101.8057   -11039.338            0   -10697.673    11168.801 
      85    1101.8057   -11039.573            0   -10697.909    11168.801 
      86    1101.8057   -11039.793            0   -10698.128    11168.801 
      87    1101.8057   -11040.043            0   -10698.378    11168.801 
      88    1101.8057   -11040.276            0   -10698.612    11168.801 
      89    1101.8057   -11040.525            0   -10698.861    11168.801 
      90    1101.8057   -11040.754            0   -10699.089    11168.801 
      91    1101.8057   -11041.021            0   -10699.357    11168.801 
      92    1101.8057   -11041.257            0   -10699.592    11168.801 
      93    1101.8057   -11041.506            0   -10699.841    11168.801 
      94    1101.8057   -11041.743            0   -10700.079    11168.801 
      95    1101.8057    -11041.97            0   -10700.305    11168.801 
      96    1101.8057   -11042.126            0   -10700.461    11168.801 
      97    1101.8057   -11042.336            0   -10700.671    11168.801 
      98    1101.8057   -11042.552            0   -10700.887    11168.801 
      99    1101.8057    -11042.79            0   -10701.126    11168.801 
     100    1101.8057   -11043.049            0   -10701.384    11168.801 
     101    1101.8057   -11043.317            0   -10701.653    11168.801 
     102    1101.8057   -11043.554            0   -10701.889    11168.801 
     103    1101.8057   -11043.794            0   -10702.129    11168.801 
     104    1101.8057   -11044.004            0   -10702.339    11168.801 
     105    1101.8057   -11044.233            0   -10702.569    11168.801 
     106    1101.8057   -11044.436            0   -10702.771    11168.801 
     107    1101.8057   -11044.669            0   -10703.004    11168.801 
     108    1101.8057   -11044.859            0   -10703.195    11168.801 
     109    1101.8057   -11045.107            0   -10703.443    11168.801 
     110    1101.8057   -11045.368            0   -10703.704    11168.801 
     111    1101.8057   -11045.615            0   -10703.951    11168.801 
     112    1101.8057   -11045.874            0   -10704.209    11168.801 
     113    1101.8057   -11046.146            0   -10704.481    11168.801 
     114    1101.8057    -11046.47            0   -10704.805    11168.801 
     115    1101.8057   -11046.715            0    -10705.05    11168.801 
     116    1101.8057   -11046.989            0   -10705.325    11168.801 
     117    1101.8057    -11047.21            0   -10705.545    11168.801 
     118    1101.8057   -11047.403            0   -10705.739    11168.801 
     119    1101.8057   -11047.635            0    -10705.97    11168.801 
     120    1101.8057   -11047.902            0   -10706.238    11168.801 
     121    1101.8057   -11048.144            0   -10706.479    11168.801 
     122    1101.8057   -11048.346            0   -10706.681    11168.801 
     123    1101.8057   -11048.581            0   -10706.917    11168.801 
     124    1101.8057   -11048.763            0   -10707.098    11168.801 
     125    1101.8057   -11048.977            0   -10707.312    11168.801 
     126    1101.8057   -11049.173            0   -10707.508    11168.801 
     127    1101.8057   -11049.361            0   -10707.697    11168.801 
     128    1101.8057   -11049.548            0   -10707.883    11168.801 
     129    1101.8057    -11049.72            0   -10708.055    11168.801 
     130    1101.8057   -11049.906            0   -10708.242    11168.801 
     131    1101.8057    -11050.11            0   -10708.446    11168.801 
     132    1101.8057   -11050.247            0   -10708.583    11168.801 
     133    1101.8057    -11050.35            0   -10708.685    11168.801 
     134    1101.8057   -11050.474            0   -10708.809    11168.801 
     135    1101.8057   -11050.641            0   -10708.976    11168.801 
     136    1101.8057   -11050.741            0   -10709.077    11168.801 
     137    1101.8057   -11050.857            0   -10709.193    11168.801 
     138    1101.8057   -11050.955            0   -10709.291    11168.801 
     139    1101.8057   -11051.087            0   -10709.422    11168.801 
     140    1101.8057   -11051.275            0   -10709.611    11168.801 
     141    1101.8057   -11051.431            0   -10709.766    11168.801 
     142    1101.8057   -11051.576            0   -10709.912    11168.801 
     143    1101.8057   -11051.737            0   -10710.073    11168.801 
     144    1101.8057   -11051.849            0   -10710.184    11168.801 
     145    1101.8057   -11051.994            0    -10710.33    11168.801 
     146    1101.8057   -11052.126            0   -10710.461    11168.801 
     147    1101.8057   -11052.272            0   -10710.608    11168.801 
     148    1101.8057   -11052.389            0   -10710.724    11168.801 
     149    1101.8057   -11052.474            0   -10710.809    11168.801 
     150    1101.8057   -11052.552            0   -10710.887    11168.801 
     151    1101.8057   -11052.665            0   -10711.001    11168.801 
     152    1101.8057   -11052.786            0   -10711.122    11168.801 
     153    1101.8057   -11052.917            0   -10711.252    11168.801 
     154    1101.8057   -11053.012            0   -10711.347    11168.801 
     155    1101.8057   -11053.111            0   -10711.447    11168.801 
     156    1101.8057   -11053.227            0   -10711.562    11168.801 
     157    1101.8057   -11053.354            0   -10711.689    11168.801 
     158    1101.8057   -11053.496            0   -10711.832    11168.801 
     159    1101.8057   -11053.654            0    -10711.99    11168.801 
     160    1101.8057   -11053.787            0   -10712.123    11168.801 
     161    1101.8057   -11053.907            0   -10712.243    11168.801 
     162    1101.8057    -11053.98            0   -10712.316    11168.801 
     163    1101.8057   -11054.104            0    -10712.44    11168.801 
     164    1101.8057   -11054.198            0   -10712.534    11168.801 
     165    1101.8057   -11054.287            0   -10712.623    11168.801 
     166    1101.8057   -11054.374            0   -10712.709    11168.801 
     167    1101.8057   -11054.478            0   -10712.813    11168.801 
     168    1101.8057   -11054.591            0   -10712.926    11168.801 
     169    1101.8057   -11054.679            0   -10713.014    11168.801 
     170    1101.8057   -11054.759            0   -10713.094    11168.801 
     171    1101.8057   -11054.828            0   -10713.164    11168.801 
     172    1101.8057   -11054.871            0   -10713.207    11168.801 
     173    1101.8057   -11054.946            0   -10713.282    11168.801 
     174    1101.8057   -11055.021            0   -10713.357    11168.801 
     175    1101.8057   -11055.072            0   -10713.408    11168.801 
     176    1101.8057    -11055.14            0   -10713.475    11168.801 
     177    1101.8057   -11055.215            0    -10713.55    11168.801 
     178    1101.8057    -11055.31            0   -10713.645    11168.801 
     179    1101.8057   -11055.391            0   -10713.726    11168.801 
     180    1101.8057   -11055.475            0    -10713.81    11168.801 
     181    1101.8057   -11055.538            0   -10713.874    11168.801 
     182    1101.8057   -11055.608            0   -10713.944    11168.801 
     183    1101.8057   -11055.694            0    -10714.03    11168.801 
     184    1101.8057   -11055.777            0   -10714.113    11168.801 
     185    1101.8057    -11055.82            0   -10714.156    11168.801 
     186    1101.8057    -11055.88            0   -10714.215    11168.801 
     187    1101.8057    -11055.92            0   -10714.255    11168.801 
     188    1101.8057   -11055.976            0   -10714.311    11168.801 
     189    1101.8057   -11056.084            0   -10714.419    11168.801 
     190    1101.8057   -11056.191            0   -10714.527    11168.801 
     191    1101.8057   -11056.284            0    -10714.62    11168.801 
     192    1101.8057   -11056.313            0   -10714.649    11168.801 
     193    1101.8057   -11056.383            0   -10714.718    11168.801 
     194    1101.8057    -11056.43            0   -10714.765    11168.801 
     195    1101.8057   -11056.473            0   -10714.808    11168.801 
     196    1101.8057   -11056.527            0   -10714.863    11168.801 
     197    1101.8057   -11056.577            0   -10714.913    11168.801 
     198    1101.8057   -11056.677            0   -10715.012    11168.801 
     199    1101.8057   -11056.727            0   -10715.062    11168.801 
     200    1101.8057   -11056.762            0   -10715.097    11168.801 
     201    1101.8057   -11056.808            0   -10715.143    11168.801 
     202    1101.8057   -11056.856            0   -10715.192    11168.801 
     203    1101.8057   -11056.921            0   -10715.256    11168.801 
     204    1101.8057   -11056.981            0   -10715.317    11168.801 
     205    1101.8057   -11057.071            0   -10715.407    11168.801 
     206    1101.8057   -11057.168            0   -10715.503    11168.801 
     207    1101.8057   -11057.232            0   -10715.568    11168.801 
     208    1101.8057   -11057.291            0   -10715.626    11168.801 
     209    1101.8057   -11057.342            0   -10715.677    11168.801 
     210    1101.8057   -11057.407            0   -10715.743    11168.801 
     211    1101.8057   -11057.453            0   -10715.789    11168.801 
     212    1101.8057   -11057.518            0   -10715.853    11168.801 
     213    1101.8057   -11057.555            0    -10715.89    11168.801 
     214    1101.8057   -11057.608            0   -10715.944    11168.801 
     215    1101.8057   -11057.637            0   -10715.972    11168.801 
     216    1101.8057   -11057.708            0   -10716.043    11168.801 
     217    1101.8057   -11057.759            0   -10716.094    11168.801 
     218    1101.8057   -11057.877            0   -10716.212    11168.801 
     219    1101.8057   -11057.949            0   -10716.285    11168.801 
     220    1101.8057   -11057.979            0   -10716.314    11168.801 
     221    1101.8057   -11058.042            0   -10716.377    11168.801 
     222    1101.8057   -11058.072            0   -10716.408    11168.801 
     223    1101.8057   -11058.103            0   -10716.438    11168.801 
     224    1101.8057   -11058.166            0   -10716.501    11168.801 
     225    1101.8057   -11058.192            0   -10716.528    11168.801 
     226    1101.8057    -11058.25            0   -10716.585    11168.801 
     227    1101.8057   -11058.289            0   -10716.625    11168.801 
     228    1101.8057   -11058.321            0   -10716.657    11168.801 
     229    1101.8057   -11058.375            0    -10716.71    11168.801 
     230    1101.8057   -11058.409            0   -10716.745    11168.801 
     231    1101.8057   -11058.443            0   -10716.779    11168.801 
     232    1101.8057   -11058.471            0   -10716.806    11168.801 
     233    1101.8057   -11058.489            0   -10716.825    11168.801 
     234    1101.8057   -11058.524            0    -10716.86    11168.801 
     235    1101.8057   -11058.547            0   -10716.882    11168.801 
     236    1101.8057   -11058.565            0   -10716.901    11168.801 
     237    1101.8057   -11058.603            0   -10716.938    11168.801 
     238    1101.8057   -11058.639            0   -10716.974    11168.801 
     239    1101.8057   -11058.656            0   -10716.992    11168.801 
     240    1101.8057   -11058.698            0   -10717.034    11168.801 
     241    1101.8057   -11058.703            0   -10717.039    11168.801 
     242    1101.8057   -11058.722            0   -10717.057    11168.801 
     243    1101.8057   -11058.725            0    -10717.06    11168.801 
     244    1101.8057   -11058.739            0   -10717.075    11168.801 
     245    1101.8057   -11058.747            0   -10717.083    11168.801 
     246    1101.8057   -11058.766            0   -10717.101    11168.801 
     247    1101.8057   -11058.769            0   -10717.104    11168.801 
     248    1101.8057    -11058.78            0   -10717.116    11168.801 
     249    1101.8057   -11058.784            0    -10717.12    11168.801 
     250    1101.8057   -11058.811            0   -10717.146    11168.801 
     251    1101.8057   -11058.813            0   -10717.149    11168.801 
     252    1101.8057   -11058.835            0    -10717.17    11168.801 
     253    1101.8057   -11058.856            0   -10717.192    11168.801 
     254    1101.8057    -11058.87            0   -10717.206    11168.801 
     255    1101.8057   -11058.881            0   -10717.216    11168.801 
     256    1101.8057   -11058.884            0   -10717.219    11168.801 
     257    1101.8057   -11058.889            0   -10717.224    11168.801 
     258    1101.8057   -11058.892            0   -10717.227    11168.801 
     259    1101.8057   -11058.903            0   -10717.239    11168.801 
     260    1101.8057   -11058.908            0   -10717.244    11168.801 
     261    1101.8057   -11058.953            0   -10717.289    11168.801 
     262    1101.8057   -11058.956            0   -10717.292    11168.801 
     263    1101.8057   -11058.976            0   -10717.311    11168.801 
     264    1101.8057   -11058.978            0   -10717.313    11168.801 
     265    1101.8057   -11059.005            0    -10717.34    11168.801 
     266    1101.8057   -11059.029            0   -10717.365    11168.801 
     267    1101.8057    -11059.03            0   -10717.366    11168.801 
     268    1101.8057   -11059.052            0   -10717.387    11168.801 
     269    1101.8057    -11059.08            0   -10717.416    11168.801 
     270    1101.8057   -11059.091            0   -10717.426    11168.801 
     271    1101.8057   -11059.123            0   -10717.459    11168.801 
     272    1101.8057    -11059.15            0   -10717.486    11168.801 
     273    1101.8057   -11059.181            0   -10717.516    11168.801 
     274    1101.8057   -11059.236            0   -10717.572    11168.801 
     275    1101.8057   -11059.293            0   -10717.628    11168.801 
     276    1101.8057   -11059.318            0   -10717.654    11168.801 
     277    1101.8057   -11059.346            0   -10717.681    11168.801 
     278    1101.8057   -11059.379            0   -10717.714    11168.801 
     279    1101.8057   -11059.424            0   -10717.759    11168.801 
     280    1101.8057   -11059.424            0   -10717.759    11168.801 
Loop time of 120.956 on 1 procs for 280 steps with 2400 atoms

98.0% CPU use with 1 MPI tasks x 1 OpenMP threads

Minimization stats:
  Stopping criterion = energy tolerance
  Energy initial, next-to-last, final = 
     -10666.1162109375   -11059.423828125   -11059.423828125
  Force two-norm initial, final = 55.798763 0.53267736
  Force max component initial, final = 4.1843848 0.12677351
  Final line search alpha, max atom move = 0.50000000 0.063386753
  Iterations, force evaluations = 280 541

MPI task timing breakdown:
Section |  min time  |  avg time  |  max time  |%varavg| %total
---------------------------------------------------------------
Pair    | 120.68     | 120.68     | 120.68     |   0.0 | 99.77
Neigh   | 0.19303    | 0.19303    | 0.19303    |   0.0 |  0.16
Comm    | 0.030312   | 0.030312   | 0.030312   |   0.0 |  0.03
Output  | 0.008349   | 0.008349   | 0.008349   |   0.0 |  0.01
Modify  | 0          | 0          | 0          |   0.0 |  0.00
Other   |            | 0.04703    |            |       |  0.04

Nlocal:        2400.00 ave        2400 max        2400 min
Histogram: 1 0 0 0 0 0 0 0 0 0
Nghost:        4986.00 ave        4986 max        4986 min
Histogram: 1 0 0 0 0 0 0 0 0 0
Neighs:         0.00000 ave           0 max           0 min
Histogram: 1 0 0 0 0 0 0 0 0 0
FullNghs:      251270.0 ave      251270 max      251270 min
Histogram: 1 0 0 0 0 0 0 0 0 0

Total # of neighbors = 251270
Ave neighs/atom = 104.69583
Neighbor list builds = 14
Dangerous builds = 0

timestep .001 # fetmoseconds
variable Tsim equal 1100 # Kelvin
velocity all create ${Tsim} 12335
velocity all create 1100 12335

#-------------------------------------------
# 1st equilibration run
fix 1 all nvt temp ${Tsim} ${Tsim} $(100.0*dt)
fix 1 all nvt temp 1100 ${Tsim} $(100.0*dt)
fix 1 all nvt temp 1100 1100 $(100.0*dt)
fix 1 all nvt temp 1100 1100 0.10000000000000000555
thermo          100
reset_timestep 0
run 50000
Per MPI rank memory allocation (min/avg/max) = 3.986 | 3.986 | 3.986 Mbytes
Step Temp E_pair E_mol TotEng Press 
       0         1100   -11059.424            0   -10718.319    11150.497 
     100    570.91488   -10870.312            0   -10693.274    5787.2589 
     200    629.09119   -10843.647            0   -10648.569    6376.9814 
     300    728.05063   -10820.965            0     -10595.2     7380.115 
     400    827.70523   -10792.773            0   -10536.106    8390.2953 
     500    920.26459   -10759.921            0   -10474.551    9328.5525 
     600    990.00999   -10721.278            0   -10414.281    10035.549 
     700    1049.6188    -10686.16            0   -10360.679    10639.792 
     800    1114.0374    -10665.41            0   -10319.953    11292.792 
     900    1153.0103   -10656.354            0   -10298.812    11687.853 
    1000    1135.0352   -10656.099            0    -10304.13    11505.643 
    1100    1089.1386   -10662.238            0   -10324.502    11040.397 
    1200    1069.7751   -10668.208            0   -10336.476    10844.113 
    1300    1073.3413   -10665.509            0   -10332.671    10880.263 
    1400     1110.643   -10662.023            0   -10317.618    11258.384 
    1500    1133.3444   -10661.827            0   -10310.383    11488.503 
    1600    1113.1621   -10662.269            0   -10317.082    11283.919 
    1700    1063.3485   -10655.008            0   -10325.269    10778.967 
    1800     1091.331    -10662.28            0   -10323.864    11062.621 
    1900    1113.6948   -10662.381            0    -10317.03    11289.319 
    2000    1105.1584    -10653.97            0   -10311.266    11202.787 
    2100    1098.3582   -10650.796            0     -10310.2    11133.854 
    2200    1106.9411   -10662.742            0   -10319.485    11220.858 
    2300    1098.4192   -10670.313            0   -10329.699    11134.473 
    2400    1075.0344   -10670.304            0   -10336.941    10897.426 
    2500     1092.009   -10672.822            0   -10334.196    11069.494 
    2600    1094.3393   -10664.541            0   -10325.192    11093.116 
    2700     1120.763    -10665.79            0   -10318.247    11360.968 
    2800    1104.0461   -10661.605            0   -10319.246    11191.512 
    2900    1104.9741   -10663.118            0   -10320.471    11200.919 
    3000     1082.796   -10661.758            0   -10325.988    10976.103 
    3100    1079.1446   -10663.854            0   -10329.217    10939.089 
    3200    1086.3016   -10661.782            0   -10324.925    11011.639 
    3300    1111.7551   -10661.075            0   -10316.325    11269.656 
    3400    1125.7325   -10661.311            0   -10312.226    11411.342 
    3500    1118.1911   -10659.847            0   -10313.101    11334.897 
    3600    1093.1499   -10657.563            0   -10318.583    11081.059 
    3700    1095.9857    -10666.15            0   -10326.291    11109.805 
    3800    1104.5873   -10668.928            0   -10326.401    11196.998 
    3900    1103.1905   -10665.234            0    -10323.14    11182.838 
    4000    1100.2987   -10661.925            0   -10320.728    11153.525 
    4100    1100.8986   -10665.787            0   -10324.404    11159.606 
    4200    1093.2778   -10669.445            0   -10330.425    11082.356 
    4300    1078.6922   -10665.202            0   -10330.705    10934.504 
    4400    1108.1789   -10665.114            0   -10321.473    11233.405 
    4500     1104.346    -10656.97            0   -10314.517    11194.552 
    4600    1092.6922   -10651.148            0    -10312.31    11076.419 
    4700    1125.4061   -10662.543            0    -10313.56    11408.034 
    4800    1103.3503    -10662.52            0   -10320.376    11184.458 
    4900       1077.6   -10661.331            0   -10327.173    10923.433 
    5000    1077.9228   -10659.319            0   -10325.061    10926.705 
    5100    1098.4664    -10657.85            0   -10317.221    11134.951 
    5200    1111.1898   -10660.349            0   -10315.774    11263.926 
    5300    1098.4716   -10658.156            0   -10317.526    11135.004 
    5400    1114.8126   -10665.833            0   -10320.135     11300.65 
    5500    1102.3477   -10661.657            0   -10319.825    11174.296 
    5600    1085.5368   -10655.803            0   -10319.183    11003.886 
    5700    1104.1204   -10658.699            0   -10316.317    11192.265 
    5800    1111.8316   -10656.508            0   -10311.734    11270.432 
    5900    1084.5359    -10650.47            0    -10314.16    10993.741 
    6000    1090.9122   -10658.538            0   -10320.252    11058.376 
    6100    1058.0694   -10657.091            0   -10328.989    10725.454 
    6200    1085.1769   -10662.438            0   -10325.929    11000.238 
    6300    1116.1793   -10655.578            0   -10309.456    11314.504 
    6400    1124.5035    -10655.28            0   -10306.577    11398.884 
    6500    1110.4403   -10656.223            0   -10311.881    11256.328 
    6600     1082.184   -10659.389            0   -10323.809      10969.9 
    6700    1106.3429   -10667.118            0   -10324.047    11214.794 
    6800    1089.6114   -10658.123            0    -10320.24     11045.19 
    6900     1105.927    -10661.31            0   -10318.367    11210.578 
    7000    1101.4337    -10661.84            0   -10320.291    11165.031 
    7100    1083.3521   -10668.474            0   -10332.531    10981.741 
    7200    1061.0134    -10671.82            0   -10342.805    10755.297 
    7300     1097.486   -10670.525            0     -10330.2    11125.013 
    7400     1088.809     -10660.3            0   -10322.665    11037.056 
    7500    1119.2442   -10665.295            0   -10318.223    11345.572 
    7600    1098.2585   -10661.244            0    -10320.68    11132.844 
    7700    1082.3267    -10666.68            0   -10331.055    10971.346 
    7800    1070.5353   -10666.933            0   -10334.965    10851.819 
    7900    1100.2549   -10660.368            0   -10319.185    11153.081 
    8000    1101.7228   -10656.077            0   -10314.438    11167.961 
    8100    1089.5955    -10652.94            0   -10315.062    11045.029 
    8200     1124.743   -10666.609            0   -10317.832    11401.313 
    8300    1065.5773   -10659.187            0   -10328.756    10801.561 
    8400    1093.3651    -10668.24            0   -10329.193    11083.241 
    8500    1107.8761   -10658.449            0   -10314.902    11230.336 
    8600    1104.9455   -10650.908            0    -10308.27    11200.629 
    8700    1107.6428    -10653.84            0   -10310.365    11227.971 
    8800    1118.1052   -10663.779            0    -10317.06    11334.027 
    8900    1083.0299     -10660.7            0   -10324.858    10978.474 
    9000    1079.6778   -10655.538            0   -10320.735    10944.495 
    9100    1135.3963    -10655.87            0   -10303.789    11509.303 
    9200    1129.7474   -10656.868            0   -10306.539    11452.041 
    9300    1080.6178   -10651.122            0   -10316.028    10954.023 
    9400    1106.6704    -10663.14            0   -10319.967    11218.114 
    9500    1082.2781   -10661.271            0   -10325.662    10970.854 
    9600    1105.0187   -10673.302            0   -10330.641    11201.371 
    9700    1063.4798   -10664.676            0   -10334.896    10780.299 
    9800    1123.0573    -10674.33            0   -10326.076    11384.225 
    9900    1109.2685   -10663.907            0   -10319.929    11244.451 
   10000    1107.3316   -10670.148            0    -10326.77    11224.816 
   10100    1066.0932     -10667.5            0    -10336.91     10806.79 
   10200    1100.7326   -10680.674            0   -10339.342    11157.923 
   10300    1097.8499   -10662.473            0   -10322.035    11128.702 
   10400    1112.4618   -10655.991            0   -10311.022     11276.82 
   10500    1096.7835   -10650.743            0   -10310.636    11117.892 
   10600    1101.2704    -10659.02            0   -10317.521    11163.375 
   10700      1091.47   -10666.305            0   -10327.845     11064.03 
   10800    1086.0642    -10665.45            0   -10328.667    11009.233 
   10900    1083.4909   -10658.307            0   -10322.321    10983.148 
   11000    1126.2082   -10655.511            0   -10306.279    11416.165 
   11100    1133.6239   -10657.538            0   -10306.007    11491.336 
   11200    1104.8595   -10657.423            0   -10314.811    11199.757 
   11300    1098.9415     -10660.3            0   -10319.523    11139.768 
   11400    1058.9655   -10652.152            0   -10323.772    10734.538 
   11500    1099.4729   -10660.942            0   -10320.001    11145.155 
   11600    1149.1728   -10660.491            0   -10304.138    11648.953 
   11700    1116.4107   -10654.053            0   -10307.859    11316.849 
   11800    1123.9099   -10662.771            0   -10314.253    11392.867 
   11900    1084.8555   -10655.583            0   -10319.175     10996.98 
   12000    1098.8649   -10659.379            0   -10318.626    11138.991 
   12100    1090.9068   -10657.665            0    -10319.38    11058.321 
   12200    1091.0464   -10662.314            0   -10323.986    11059.737 
   12300    1075.3365   -10659.935            0   -10326.478    10900.488 
   12400    1122.5306   -10664.846            0   -10316.754    11378.886 
   12500    1110.5907   -10651.988            0     -10307.6    11257.853 
   12600    1121.5785   -10656.021            0   -10308.226    11369.234 
   12700    1108.1783   -10661.136            0   -10317.495    11233.399 
   12800     1082.431   -10655.646            0   -10319.989    10972.404 
   12900    1091.7639   -10653.793            0   -10315.242    11067.009 
   13000     1109.147   -10650.521            0    -10306.58    11243.219 
   13100    1103.6672   -10648.518            0   -10306.276    11187.671 
   13200    1121.0501   -10664.225            0   -10316.592    11363.878 
   13300    1085.8701   -10666.752            0   -10330.029    11007.265 
   13400    1093.0902   -10665.692            0    -10326.73    11080.454 
   13500    1094.6283    -10656.48            0   -10317.042    11096.046 
   13600    1117.6472   -10655.374            0   -10308.797    11329.384 
   13700     1117.348    -10657.86            0   -10311.376    11326.351 
   13800    1098.7322   -10660.623            0   -10319.912    11137.646 
   13900      1085.84   -10670.765            0   -10334.051    11006.959 
   14000    1060.1912   -10670.305            0   -10341.545    10746.963 
   14100     1061.433   -10662.863            0   -10333.718    10759.551 
   14200    1099.7754   -10663.852            0   -10322.817     11148.22 
   14300    1091.9377   -10653.224            0   -10314.619    11068.771 
   14400    1129.9875   -10657.428            0   -10307.024    11454.475 
   14500    1119.5628   -10653.212            0   -10306.041    11348.802 
   14600    1092.8452   -10656.269            0   -10317.383     11077.97 
   14700    1098.5608   -10666.066            0   -10325.408    11135.908 
   14800    1101.2375    -10672.87            0   -10331.382    11163.042 
   14900    1076.9244   -10664.455            0   -10330.506    10916.584 
   15000    1115.9317   -10660.329            0   -10314.284    11311.994 
   15100    1093.3046   -10653.567            0   -10314.539    11082.627 
   15200    1100.6398   -10663.158            0   -10321.855    11156.983 
   15300    1081.8488   -10661.712            0   -10326.236    10966.502 
   15400    1095.6504   -10658.688            0   -10318.932    11106.406 
   15500    1134.9874   -10658.734            0    -10306.78    11505.158 
   15600     1139.862   -10662.823            0   -10309.358    11554.571 
   15700    1121.3631    -10667.15            0   -10319.421    11367.051 
   15800     1116.623   -10671.688            0   -10325.429    11319.002 
   15900    1091.5418   -10666.775            0   -10328.294    11064.758 
   16000    1097.2001   -10662.896            0   -10322.659    11122.115 
   16100    1111.8211   -10655.229            0   -10310.458    11270.326 
   16200    1105.7268   -10654.658            0   -10311.778    11208.549 
   16300    1077.4452   -10647.782            0   -10313.672    10921.863 
   16400    1091.2634   -10651.689            0   -10313.294    11061.936 
   16500    1124.7522   -10663.204            0   -10314.424    11401.406 
   16600    1102.7284   -10660.556            0   -10318.605    11178.154 
   16700    1094.9738   -10657.807            0   -10318.261    11099.548 
   16800    1117.2343   -10659.305            0   -10312.856    11325.198 
   16900    1105.3722   -10653.124            0   -10310.354    11204.954 
   17000    1114.7875   -10662.202            0   -10316.512    11300.395 
   17100    1107.2024   -10673.027            0   -10329.689    11223.507 
   17200    1091.6228   -10670.461            0   -10331.954    11065.579 
   17300    1109.8729    -10666.76            0   -10322.594    11250.577 
   17400    1097.6378   -10654.798            0   -10314.426    11126.552 
   17500    1102.0626   -10655.756            0   -10314.012    11171.405 
   17600    1129.3912   -10667.928            0   -10317.709     11448.43 
   17700    1080.9086   -10666.388            0   -10331.203    10956.972 
   17800    1087.3372   -10667.945            0   -10330.767    11022.137 
   17900    1093.6908   -10664.305            0   -10325.157    11086.542 
   18000    1115.5475   -10665.837            0   -10319.911    11308.099 
   18100    1124.6756   -10661.835            0   -10313.079    11400.629 
   18200     1110.136   -10658.017            0   -10313.769    11253.244 
   18300    1085.8779   -10666.248            0   -10329.523    11007.344 
   18400    1093.6717   -10666.881            0   -10327.739    11086.349 
   18500    1078.2927   -10650.988            0   -10316.615    10930.454 
   18600     1096.396    -10652.33            0   -10312.343    11113.964 
   18700    1109.2377    -10656.61            0   -10312.641    11244.138 
   18800    1109.0762   -10666.945            0   -10323.026    11242.501 
   18900    1058.3274   -10662.796            0   -10334.614     10728.07 
   19000    1076.3529   -10664.448            0   -10330.676    10910.791 
   19100    1092.6506   -10661.031            0   -10322.206    11075.997 
   19200    1093.7568   -10654.183            0   -10315.014    11087.211 
   19300    1146.2619   -10666.876            0   -10311.426    11619.446 
   19400    1103.2362   -10657.828            0    -10315.72    11183.302 
   19500    1096.8362   -10666.213            0   -10326.089    11118.426 
   19600     1108.096   -10675.858            0   -10332.243    11232.565 
   19700     1101.373   -10669.277            0   -10327.747    11164.415 
   19800    1105.8637   -10659.179            0   -10316.256    11209.937 
   19900     1123.335   -10656.288            0   -10307.947     11387.04 
   20000    1105.9389   -10651.884            0   -10308.938    11210.699 
   20100    1102.3298   -10651.916            0   -10310.089    11174.114 
   20200    1088.9612   -10647.638            0   -10309.956    11038.599 
   20300     1099.555   -10650.609            0   -10309.643    11145.986 
   20400    1092.0151   -10653.323            0   -10314.695    11069.556 
   20500    1090.1457   -10661.037            0   -10322.988    11050.606 
   20600    1084.6239    -10662.68            0   -10326.343    10994.632 
   20700    1118.4001   -10661.017            0   -10314.206    11337.016 
   20800    1116.8824   -10654.057            0   -10307.717    11321.631 
   20900    1123.0677   -10663.083            0   -10314.825    11384.331 
   21000    1096.8249   -10664.561            0   -10324.441    11118.311 
   21100    1083.6036   -10660.905            0   -10324.885     10984.29 
   21200     1117.067   -10665.678            0   -10319.281    11323.502 
   21300    1092.4752   -10660.109            0   -10321.338     11074.22 
   21400    1082.7229   -10671.328            0   -10335.581    10975.363 
   21500    1062.1973    -10670.85            0   -10341.467    10767.299 
   21600     1082.514   -10666.676            0   -10330.994    10973.244 
   21700    1095.8703   -10661.366            0   -10321.542    11108.635 
   21800    1095.8714   -10654.243            0   -10314.419    11108.647 
   21900    1111.1261   -10653.562            0   -10309.007     11263.28 
   22000    1114.4868   -10649.936            0   -10304.339    11297.347 
   22100    1132.3604   -10646.854            0   -10295.714    11478.529 
   22200    1103.8032   -10640.566            0   -10298.282     11189.05 
   22300    1091.1379   -10652.803            0   -10314.446    11060.663 
   22400    1101.2583   -10663.843            0   -10322.348    11163.252 
   22500    1085.0192   -10666.127            0   -10329.668     10998.64 
   22600     1095.625   -10667.058            0    -10327.31    11106.149 
   22700    1104.4235   -10659.832            0   -10317.356    11195.338 
   22800    1121.3078   -10654.122            0    -10306.41     11366.49 
   22900    1132.0019   -10659.468            0    -10308.44    11474.894 
   23000    1100.5772   -10655.502            0   -10314.218    11156.349 
   23100    1108.2446   -10661.663            0   -10318.002    11234.072 
   23200    1103.1626   -10667.854            0   -10325.768    11182.556 
   23300    1086.2587   -10666.333            0    -10329.49    11011.204 
   23400    1109.1101   -10668.414            0   -10324.484    11242.844 
   23500     1114.829   -10652.792            0   -10307.089    11300.816 
   23600    1112.1718   -10653.188            0   -10308.309    11273.881 
   23700    1114.6224   -10660.645            0   -10315.006    11298.721 
   23800     1102.226   -10666.713            0   -10324.918    11173.062 
   23900    1093.6649   -10667.836            0   -10328.696    11086.279 
   24000    1080.6853    -10659.85            0   -10324.734    10954.707 
   24100    1081.7712   -10654.335            0   -10318.883    10965.715 
   24200    1105.4461   -10657.304            0    -10314.51    11205.703 
   24300    1092.0983   -10654.332            0   -10315.678    11070.399 
   24400    1105.7149   -10658.974            0   -10316.097    11208.428 
   24500    1106.9918   -10663.576            0   -10320.303    11221.372 
   24600    1086.8726   -10668.639            0   -10331.605    11017.428 
   24700    1071.0954   -10667.683            0   -10335.541    10857.497 
   24800    1109.3419    -10669.09            0   -10325.088    11245.194 
   24900    1112.1441   -10664.398            0   -10319.528    11273.599 
   25000    1123.3017   -10672.432            0   -10324.101    11386.702 
   25100    1087.9927    -10669.96            0   -10332.579    11028.782 
   25200    1088.0453   -10671.602            0   -10334.204    11029.315 
   25300    1084.6521   -10657.477            0   -10321.131    10994.918 
   25400     1111.137   -10657.944            0   -10313.386    11263.391 
   25500    1105.0019    -10658.54            0   -10315.884    11201.201 
   25600    1095.5172   -10660.927            0   -10321.212    11105.055 
   25700    1079.4577    -10655.83            0   -10321.096    10942.264 
   25800    1106.5377   -10653.866            0   -10310.734    11216.769 
   25900    1090.6651   -10642.025            0   -10303.816    11055.871 
   26000    1104.5277   -10647.778            0    -10305.27    11196.394 
   26100    1096.6181   -10661.097            0   -10321.041    11116.216 
   26200    1113.7063   -10671.507            0   -10326.152    11289.435 
   26300    1086.6356   -10664.433            0   -10327.472    11015.025 
   26400     1108.828   -10662.597            0   -10318.755    11239.985 
   26500    1112.9504   -10653.291            0   -10308.171    11281.773 
   26600    1100.8945   -10650.114            0   -10308.732    11159.564 
   26700    1097.1866   -10655.243            0   -10315.011    11121.978 
   26800    1088.6149   -10657.456            0   -10319.882    11035.088 
   26900      1097.75   -10664.716            0   -10324.309    11127.689 
   27000     1065.452    -10663.56            0   -10333.168     10800.29 
   27100     1077.562   -10660.967            0    -10326.82    10923.047 
   27200    1103.9068     -10658.4            0   -10316.084    11190.099 
   27300    1115.2368   -10657.662            0   -10311.833    11304.949 
   27400    1106.7579    -10661.47            0    -10318.27    11219.001 
   27500    1103.3848   -10670.616            0   -10328.462    11184.808 
   27600    1073.0592   -10660.047            0   -10327.296    10877.404 
   27700    1084.3292   -10658.115            0    -10321.87    10991.645 
   27800    1107.5508   -10659.823            0   -10316.377    11227.038 
   27900    1108.0832   -10660.974            0   -10317.362    11232.435 
   28000    1102.3734   -10670.073            0   -10328.233    11174.556 
   28100    1060.2836   -10664.949            0    -10336.16      10747.9 
   28200    1089.0241   -10667.058            0   -10329.357    11039.237 
   28300    1115.4087   -10664.452            0   -10318.569    11306.692 
   28400    1114.1124   -10661.372            0   -10315.891    11293.552 
   28500    1120.4215   -10662.451            0   -10315.014    11357.506 
   28600    1089.6244   -10659.768            0    -10321.88    11045.322 
   28700    1069.5422   -10658.608            0   -10326.949    10841.752 
   28800    1104.5221   -10662.811            0   -10320.304    11196.337 
   28900    1139.8514   -10662.793            0   -10309.331    11554.464 
   29000    1113.6901   -10657.509            0   -10312.159    11289.271 
   29100    1111.4191   -10666.852            0   -10322.206     11266.25 
   29200    1095.8567   -10670.423            0   -10330.603    11108.497 
   29300    1062.5132   -10666.981            0   -10337.501    10770.501 
   29400    1064.6052   -10671.831            0   -10341.702    10791.706 
   29500    1088.0528   -10666.369            0   -10328.969     11029.39 
   29600      1100.75   -10661.547            0    -10320.21      11158.1 
   29700     1087.025    -10651.05            0   -10313.969    11018.972 
   29800    1117.9783   -10653.981            0   -10307.302     11332.74 
   29900    1103.9974   -10657.265            0    -10314.92    11191.018 
   30000    1079.3074   -10661.688            0   -10327.001     10940.74 
   30100     1107.273   -10668.919            0   -10325.559    11224.223 
   30200    1101.0476   -10663.332            0   -10321.903    11161.117 
   30300    1110.3916   -10661.688            0   -10317.361    11255.835 
   30400    1099.8148   -10651.402            0   -10310.355     11148.62 
   30500    1116.8867   -10649.268            0   -10302.927    11321.674 
   30600    1096.1406   -10649.525            0   -10309.618    11111.375 
   30700    1083.8781   -10659.474            0   -10323.368    10987.072 
   30800    1103.4866   -10667.112            0   -10324.927     11185.84 
   30900    1087.0776   -10661.436            0   -10324.338    11019.506 
   31000    1122.0253   -10663.398            0   -10315.464    11373.763 
   31100     1120.371   -10652.962            0    -10305.54    11356.995 
   31200    1084.3097   -10645.669            0    -10309.43    10991.447 
   31300    1107.1637   -10667.293            0   -10323.967    11223.115 
   31400    1107.2268   -10677.029            0   -10333.684    11223.754 
   31500    1076.8714   -10663.704            0   -10329.772    10916.047 
   31600     1116.853   -10667.084            0   -10320.753    11321.333 
   31700    1103.2239     -10659.9            0   -10317.796    11183.177 
   31800    1093.8871   -10655.711            0   -10316.502    11088.532 
   31900    1103.3162   -10656.979            0   -10314.847    11184.113 
   32000    1117.6113   -10657.535            0   -10310.969     11329.02 
   32100    1116.3669   -10655.744            0   -10309.564    11316.405 
   32200    1098.6905   -10655.558            0   -10314.859    11137.223 
   32300    1104.4783   -10665.845            0   -10323.351    11195.893 
   32400    1088.2867   -10665.389            0   -10327.916    11031.761 
   32500    1139.7143   -10671.873            0   -10318.453    11553.073 
   32600    1147.2582   -10663.102            0   -10307.342    11629.545 
   32700    1102.4986   -10653.762            0   -10311.882    11175.825 
   32800    1091.0857   -10658.534            0   -10320.194    11060.134 
   32900    1107.7197   -10663.517            0   -10320.018     11228.75 
   33000    1096.9987   -10658.686            0   -10318.512    11120.073 
   33100      1111.34    -10661.77            0   -10317.148    11265.448 
   33200    1079.3182    -10657.92            0   -10323.229    10940.849 
   33300    1077.4806   -10664.667            0   -10330.546    10922.223 
   33400    1093.0205   -10665.932            0   -10326.991    11079.747 
   33500    1111.7628   -10658.056            0   -10313.303    11269.734 
   33600    1103.9666   -10650.942            0   -10308.608    11190.706 
   33700    1105.3506   -10657.814            0   -10315.051    11204.735 
   33800    1094.1454   -10661.658            0   -10322.369     11091.15 
   33900    1052.4661   -10649.964            0   -10323.599    10668.655 
   34000    1122.4417   -10664.709            0   -10316.645    11377.984 
   34100    1115.9223   -10662.879            0   -10316.837    11311.899 
   34200    1080.9762   -10654.671            0   -10319.465    10957.656 
   34300    1124.9846   -10669.367            0   -10320.515    11403.761 
   34400    1105.0802   -10663.408            0   -10320.728    11201.995 
   34500     1101.827   -10663.983            0   -10322.312    11169.017 
   34600    1095.8675   -10666.114            0   -10326.291    11108.607 
   34700    1044.4514   -10663.175            0   -10339.296    10587.412 
   34800    1061.8141   -10670.359            0   -10341.096    10763.413 
   34900    1099.5435   -10668.055            0   -10327.092     11145.87 
   35000    1111.3697   -10666.139            0   -10321.508     11265.75 
   35100    1074.0754   -10655.483            0   -10322.418    10887.705 
   35200    1095.2689   -10663.673            0   -10324.035    11102.539 
   35300    1078.8722   -10661.046            0   -10326.493    10936.329 
   35400    1082.8463   -10649.967            0   -10314.181    10976.614 
   35500    1123.8608   -10654.513            0   -10306.009     11392.37 
   35600    1085.2454   -10648.525            0   -10311.996    11000.933 
   35700    1088.2107   -10657.823            0   -10320.374    11030.992 
   35800     1114.275   -10668.962            0   -10323.431    11295.201 
   35900     1087.051   -10661.292            0   -10324.203    11019.236 
   36000    1100.7121   -10654.704            0   -10313.379    11157.716 
   36100    1147.2154   -10656.808            0   -10301.062    11629.111 
   36200    1111.1686   -10656.996            0   -10312.428    11263.711 
   36300    1089.8101   -10657.582            0   -10319.637    11047.204 
   36400    1095.9984   -10662.177            0   -10322.313    11109.934 
   36500    1091.3862   -10652.793            0   -10314.359     11063.18 
   36600    1133.1416   -10654.995            0   -10303.613    11486.447 
   36700    1097.9257   -10650.178            0   -10309.716     11129.47 
   36800    1102.7334   -10656.391            0   -10314.438    11178.206 
   36900    1112.9601   -10660.497            0   -10315.374    11281.872 
   37000    1085.8629   -10656.554            0   -10319.833    11007.192 
   37100    1073.0045   -10658.556            0   -10325.822    10876.848 
   37200    1087.2675   -10669.291            0   -10332.135     11021.43 
   37300    1083.8014   -10662.095            0   -10326.013    10986.295 
   37400     1110.481   -10657.562            0   -10313.208    11256.741 
   37500    1117.0447   -10659.044            0   -10312.654    11323.276 
   37600    1106.7992   -10665.442            0   -10322.229    11219.419 
   37700    1095.8827   -10668.302            0   -10328.474    11108.761 
   37800    1093.7341   -10666.059            0   -10326.897    11086.981 
   37900    1125.6838   -10675.073            0   -10326.004    11410.849 
   38000    1079.8134   -10661.806            0   -10326.961    10945.869 
   38100    1079.2986   -10658.688            0   -10324.003    10940.651 
   38200     1119.518   -10652.925            0   -10305.768    11348.347 
   38300    1114.6083   -10650.362            0   -10304.728    11298.579 
   38400    1121.3599   -10664.287            0   -10316.559    11367.019 
   38500    1087.3648   -10660.241            0   -10323.055    11022.416 
   38600    1105.5322   -10666.981            0   -10324.161    11206.576 
   38700     1092.307   -10663.802            0   -10325.083    11072.515 
   38800    1105.2854   -10659.248            0   -10316.504    11204.075 
   38900    1111.0795   -10651.844            0   -10307.303    11262.808 
   39000    1108.1179   -10653.112            0    -10309.49    11232.787 
   39100    1088.2254   -10659.246            0   -10321.793     11031.14 
   39200    1088.7145   -10663.656            0   -10326.051    11036.099 
   39300    1101.8665   -10663.024            0   -10321.341    11169.418 
   39400    1091.5012   -10653.635            0   -10315.166    11064.346 
   39500    1106.9826   -10651.134            0   -10307.864    11221.279 
   39600    1092.4347   -10643.874            0   -10305.115    11073.809 
   39700    1117.5446   -10651.744            0   -10305.199    11328.343 
   39800    1090.2294   -10647.471            0   -10309.396    11051.454 
   39900    1104.0336   -10655.123            0   -10312.768    11191.386 
   40000    1092.7359   -10653.669            0   -10314.817    11076.863 
   40100    1099.9811   -10657.824            0   -10316.725    11150.306 
   40200    1087.8628   -10666.288            0   -10328.947    11027.465 
   40300     1077.468   -10671.192            0   -10337.075    10922.094 
   40400    1093.5942    -10668.98            0   -10329.862    11085.563 
   40500    1077.7866   -10655.892            0   -10321.675    10925.324 
   40600    1101.9764   -10658.252            0   -10316.534    11170.532 
   40700    1107.8575   -10657.474            0   -10313.932    11230.147 
   40800    1129.8904   -10658.007            0   -10307.633    11453.491 
   40900    1127.2347   -10649.727            0   -10300.177    11426.571 
   41000    1104.3365   -10645.305            0   -10302.855    11194.455 
   41100    1111.4507   -10661.627            0   -10316.972     11266.57 
   41200    1103.9685   -10666.523            0   -10324.188    11190.725 
   41300    1091.2917   -10666.051            0   -10327.647    11062.222 
   41400    1070.9153   -10657.057            0   -10324.971    10855.671 
   41500    1115.0393   -10655.899            0   -10310.131    11302.947 
   41600       1115.4   -10652.368            0   -10306.488    11306.605 
   41700    1095.1299   -10649.372            0   -10309.778     11101.13 
   41800    1110.4108   -10660.424            0   -10316.091     11256.03 
   41900    1078.6582   -10663.834            0   -10329.347     10934.16 
   42000    1067.0138   -10672.521            0   -10341.646    10816.122 
   42100    1073.9795   -10670.703            0   -10337.667    10886.733 
   42200    1072.4596   -10661.589            0   -10329.024    10871.325 
   42300    1084.2186   -10657.233            0   -10321.023    10990.525 
   42400    1106.4134   -10658.825            0   -10315.732    11215.508 
   42500    1089.6371   -10654.264            0   -10316.373    11045.451 
   42600    1109.9798   -10660.895            0   -10316.695     11251.66 
   42700    1113.6915   -10664.219            0   -10318.868    11289.285 
   42800    1094.0556   -10669.234            0   -10329.973     11090.24 
   42900    1077.4901   -10666.389            0   -10332.264    10922.319 
   43000    1097.3198   -10662.968            0   -10322.694    11123.329 
   43100    1104.6474   -10657.258            0   -10314.712    11197.607 
   43200    1104.9511   -10654.775            0   -10312.135    11200.685 
   43300    1096.4062     -10655.1            0   -10315.109    11114.068 
   43400    1071.5928   -10663.008            0   -10330.712    10862.539 
   43500    1069.5067   -10661.433            0   -10329.784    10841.392 
   43600    1102.3417   -10661.399            0   -10319.569    11174.235 
   43700    1129.2677   -10663.997            0   -10313.817    11447.179 
   43800    1097.5393   -10657.565            0   -10317.224    11125.553 
   43900    1095.0509   -10660.199            0   -10320.629    11100.329 
   44000    1093.0039   -10664.415            0    -10325.48    11079.579 
   44100    1072.2434   -10671.621            0   -10339.124    10869.134 
   44200    1075.9546   -10669.831            0   -10336.183    10906.753 
   44300    1111.2101   -10668.285            0   -10323.704    11264.132 
   44400    1119.4157   -10666.587            0   -10319.462    11347.311 
   44500    1105.8464   -10663.728            0    -10320.81    11209.761 
   44600    1087.6903   -10664.242            0   -10326.955    11025.716 
   44700    1082.1842   -10666.747            0   -10331.167    10969.901 
   44800    1077.7821   -10660.459            0   -10326.244    10925.278 
   44900    1094.8986   -10655.122            0   -10315.599    11098.786 
   45000    1123.2658   -10661.311            0   -10312.991    11386.338 
   45100    1085.4208   -10656.862            0   -10320.279    11002.711 
   45200    1077.1026   -10664.539            0   -10330.535     10918.39 
   45300    1088.8281   -10666.482            0   -10328.842    11037.249 
   45400    1115.7619   -10658.479            0   -10312.487    11310.272 
   45500    1126.2358     -10658.1            0   -10308.859    11416.445 
   45600    1090.3562   -10653.884            0    -10315.77    11052.739 
   45700    1082.5141   -10660.299            0   -10324.617    10973.246 
   45800    1077.4655   -10665.639            0   -10331.522    10922.069 
   45900    1081.6284   -10664.424            0   -10329.016    10964.268 
   46000    1088.7936   -10661.991            0   -10324.362      11036.9 
   46100    1098.2576   -10657.965            0   -10317.401    11132.835 
   46200    1118.9794   -10664.747            0   -10317.757    11342.887 
   46300    1094.2331   -10663.786            0    -10324.47     11092.04 
   46400    1076.0759   -10673.464            0   -10339.778    10907.983 
   46500    1083.1579   -10676.003            0   -10340.121    10979.772 
   46600    1085.5399   -10668.304            0   -10331.683    11003.918 
   46700     1098.421   -10662.923            0   -10322.308    11134.492 
   46800    1080.6777   -10653.063            0   -10317.951     10954.63 
   46900    1105.5829   -10653.725            0   -10310.889     11207.09 
   47000    1135.8951   -10661.139            0   -10308.903    11514.359 
   47100    1099.5958   -10662.247            0   -10321.268      11146.4 
   47200    1072.9463    -10663.64            0   -10330.924    10876.259 
   47300    1096.1868   -10663.205            0   -10323.283    11111.844 
   47400    1102.8753   -10656.718            0   -10314.722    11179.644 
   47500     1113.694   -10660.615            0   -10315.264    11289.311 
   47600    1133.2106   -10671.598            0   -10320.195    11487.147 
   47700    1079.5914   -10666.879            0   -10332.103    10943.619 
   47800    1070.3593   -10673.516            0   -10341.602    10850.035 
   47900     1078.942    -10667.26            0   -10332.685    10937.036 
   48000    1085.9061   -10662.424            0    -10325.69     11007.63 
   48100    1096.1984   -10659.073            0   -10319.148    11111.961 
   48200    1127.7645   -10663.062            0   -10313.348    11431.941 
   48300    1122.5544   -10656.763            0   -10308.664    11379.127 
   48400    1101.2872   -10645.011            0   -10303.507    11163.545 
   48500    1106.4594   -10650.771            0   -10307.664    11215.975 
   48600     1078.823   -10653.823            0   -10319.286     10935.83 
   48700    1083.4085   -10656.549            0   -10320.589    10982.312 
   48800    1118.6419    -10659.45            0   -10312.565    11339.467 
   48900    1122.5268   -10650.799            0   -10302.709    11378.847 
   49000    1108.6993    -10643.09            0   -10299.288    11238.681 
   49100    1115.2262   -10658.883            0   -10313.057    11304.843 
   49200     1100.173   -10663.004            0   -10321.846    11152.251 
   49300    1094.2618   -10658.884            0   -10319.559    11092.331 
   49400    1119.7277   -10656.734            0   -10309.512    11350.473 
   49500    1129.9758   -10655.531            0   -10305.131    11454.356 
   49600    1088.6333   -10652.849            0   -10315.269    11035.275 
   49700     1088.419   -10659.206            0   -10321.693    11033.103 
   49800    1089.1951   -10656.625            0   -10318.871     11040.97 
   49900    1129.6728   -10663.431            0   -10313.125    11451.285 
   50000    1117.0284   -10657.349            0   -10310.964    11323.111 
Loop time of 10677 on 1 procs for 50000 steps with 2400 atoms

Performance: 0.405 ns/day, 59.317 hours/ns, 4.683 timesteps/s
97.9% CPU use with 1 MPI tasks x 1 OpenMP threads

MPI task timing breakdown:
Section |  min time  |  avg time  |  max time  |%varavg| %total
---------------------------------------------------------------
Pair    | 10643      | 10643      | 10643      |   0.0 | 99.68
Neigh   | 26.722     | 26.722     | 26.722     |   0.0 |  0.25
Comm    | 2.9347     | 2.9347     | 2.9347     |   0.0 |  0.03
Output  | 0.015526   | 0.015526   | 0.015526   |   0.0 |  0.00
Modify  | 3.1315     | 3.1315     | 3.1315     |   0.0 |  0.03
Other   |            | 0.9322     |            |       |  0.01

Nlocal:        2400.00 ave        2400 max        2400 min
Histogram: 1 0 0 0 0 0 0 0 0 0
Nghost:        4917.00 ave        4917 max        4917 min
Histogram: 1 0 0 0 0 0 0 0 0 0
Neighs:         0.00000 ave           0 max           0 min
Histogram: 1 0 0 0 0 0 0 0 0 0
FullNghs:      251278.0 ave      251278 max      251278 min
Histogram: 1 0 0 0 0 0 0 0 0 0

Total # of neighbors = 251278
Ave neighs/atom = 104.69917
Neighbor list builds = 1978
Dangerous builds = 0

velocity        all scale ${Tsim}
velocity        all scale 1100
unfix           1

#-----------------------------------------
# 2nd equilibration run
compute         ke all ke/atom
variable        temp atom c_ke/1.5

fix             1 all nve

compute         layers all chunk/atom bin/1d z lower 0.05 units reduced # <--- delta z ?
fix             2 all ave/chunk 10 100 1000 layers v_temp file profile.mp # <--- use every 10 steps, 100 times, repeat every 1000 steps
fix             3 all thermal/conductivity 10 z 20 # <--- perform kintic energy swap every 10 steps, using 20 bins

variable        tdiff equal f_2[11][3]-f_2[1][3]
thermo_style    custom step temp epair etotal f_3 v_tdiff
thermo          1000
run 200000
Per MPI rank memory allocation (min/avg/max) = 4.237 | 4.237 | 4.237 Mbytes
Step Temp E_pair TotEng f_3 v_tdiff 
   50000         1100   -10657.348   -10316.243            0            0 
   51000     1096.378    -10656.19   -10316.209    42.223597  0.037077863 
   52000    1104.2366   -10658.644   -10316.225    79.675234  0.054645428 
   53000    1093.4319   -10655.278    -10316.21    116.23597  0.052100094 
   54000    1086.6968   -10653.206   -10316.227    150.06783  0.066224115 
   55000    1124.5949   -10664.953   -10316.222    184.76164  0.059787292 
   56000    1105.5141   -10659.005    -10316.19    220.62827  0.062078084 
   57000    1091.5268   -10654.674   -10316.197     254.5496  0.059330655 
   58000    1131.5153   -10667.083   -10316.206     287.1049   0.06784257 
   59000    1106.6952   -10659.389   -10316.208    322.01611  0.066597915 
   60000    1093.7834    -10655.37   -10316.193    356.92453  0.066137094 
   61000    1121.7444   -10664.052   -10316.204    392.60331   0.05917798 
   62000    1119.4495   -10663.334   -10316.198    427.05287  0.059806493 
   63000    1121.6582    -10664.01   -10316.189     461.8068  0.062223377 
   64000    1100.6483   -10657.506     -10316.2    497.69802   0.06203924 
   65000    1112.0535   -10661.048   -10316.206    530.05468   0.06744477 
   66000    1112.2668   -10661.105   -10316.197    564.76279   0.06350801 
   67000    1116.1414    -10662.32    -10316.21     597.4586  0.065654961 
   68000    1114.6194    -10661.84   -10316.202    633.78543  0.060800899 
   69000    1144.7106   -10671.152   -10316.183    667.70933  0.059522082 
   70000    1096.7971    -10656.32   -10316.209    702.57461  0.064892438 
   71000    1120.6967   -10663.728   -10316.205    736.16352  0.061194637 
   72000     1096.219   -10656.104   -10316.172    769.06548  0.063875721 
   73000    1092.6089   -10654.991   -10316.179    802.72332  0.060057847 
   74000    1109.6581   -10660.295   -10316.195    839.15846  0.068747661 
   75000    1125.2398   -10665.108   -10316.177    873.52677  0.062812392 
   76000    1107.2905   -10659.536   -10316.171      909.432  0.061573854 
   77000    1112.3635    -10661.11   -10316.172    945.00823  0.064619936 
   78000    1121.1709   -10663.842   -10316.172    979.65491  0.059121992 
   79000    1098.2605   -10656.738   -10316.173    1013.5655  0.062006016 
   80000    1115.7695   -10662.161   -10316.166    1048.6895  0.060295904 
   81000    1114.3886   -10661.732   -10316.166    1080.8578  0.066449795 
   82000    1114.5315   -10661.791    -10316.18    1116.6267  0.061259271 
   83000    1125.4996   -10665.171   -10316.159    1149.9152  0.069058117 
   84000    1092.5927   -10654.964   -10316.156    1184.9989  0.059494053 
   85000    1107.9394   -10659.718   -10316.151    1220.4265  0.062965534 
   86000    1129.7667   -10666.474   -10316.139    1253.6879  0.065688053 
   87000    1131.8919   -10667.142   -10316.147     1288.547  0.062686209 
   88000    1097.1841   -10656.347   -10316.115    1322.2692  0.068509107 
   89000    1104.8266   -10658.727   -10316.125    1358.2713  0.066255398 
   90000    1127.1068   -10665.642   -10316.131    1390.4951  0.064026116 
   91000     1109.312   -10660.113   -10316.121    1425.7069   0.05403339 
   92000    1105.0474   -10658.793   -10316.123    1460.5125  0.058490424 
   93000    1133.1094   -10667.487   -10316.116    1496.2855  0.060024504 
   94000    1115.2068   -10661.932   -10316.111    1531.6057  0.063279941 
   95000    1096.4368   -10656.104   -10316.105    1564.8303  0.061787992 
   96000    1093.7209   -10655.264   -10316.106    1597.0288  0.060930452 
   97000    1093.3941   -10655.158   -10316.102    1632.5934  0.063899345 
   98000    1098.3607   -10656.703   -10316.107    1668.3748       0.0603 
   99000    1103.1178    -10658.18   -10316.108    1704.7093  0.058350867 
  100000    1116.1067   -10662.218   -10316.119    1739.7233  0.059478597 
  101000     1125.418   -10665.088   -10316.101    1774.2473   0.06639926 
  102000    1102.3509   -10657.926   -10316.092    1809.7381  0.057221809 
  103000    1109.4615   -10660.149   -10316.111     1844.789  0.062705095 
  104000    1110.0915    -10660.34   -10316.106     1879.033  0.062582213 
  105000    1139.5614   -10669.487   -10316.115    1914.6868  0.061069818 
  106000    1109.7572   -10660.222   -10316.091    1950.4447  0.060592412 
  107000     1089.893   -10654.062   -10316.092    1985.5508  0.066615076 
  108000    1129.4495   -10666.342   -10316.105    2021.0301  0.067398733 
  109000    1119.1132   -10663.137   -10316.105    2056.7811  0.063699766 
  110000    1106.6649   -10659.262    -10316.09    2090.4036  0.056871083 
  111000    1089.3199   -10653.892   -10316.099    2125.5666  0.059525241 
  112000    1110.8745   -10660.585   -10316.108    2160.0201   0.06112128 
  113000    1108.1167   -10659.716   -10316.094    2196.1305   0.06279413 
  114000    1129.0618   -10666.214   -10316.097    2232.1638  0.063753251 
  115000     1126.929   -10665.557   -10316.101    2267.9091  0.061431414 
  116000    1122.1674   -10664.084   -10316.105    2302.4781  0.059857019 
  117000    1073.8705   -10649.079   -10316.077    2337.3247  0.057111571 
  118000    1102.4497   -10657.944    -10316.08    2372.0833  0.061570069 
  119000    1122.0253   -10664.013   -10316.078    2407.3092  0.058273252 
  120000    1102.8344    -10658.05   -10316.066    2443.6588  0.058722032 
  121000    1115.4071   -10661.933    -10316.05    2478.0585  0.064420606 
  122000    1119.4974   -10663.229   -10316.078    2512.5668  0.065594167 
  123000    1121.3385     -10663.8   -10316.078    2548.6987  0.060502188 
  124000    1094.3088   -10655.399    -10316.06    2583.8374  0.066153317 
  125000    1138.8348   -10669.213   -10316.066    2619.7358  0.061884432 
  126000    1108.9639   -10659.935    -10316.05    2654.2459  0.064054158 
  127000    1092.7927    -10654.93    -10316.06    2687.1629   0.06245776 
  128000    1091.2117   -10654.434   -10316.054    2722.6218  0.059839451 
  129000    1104.9689   -10658.694   -10316.049    2758.2566  0.061458799 
  130000    1134.4912   -10667.871   -10316.071    2792.1593  0.063396051 
  131000    1106.4487   -10659.174    -10316.07     2828.137  0.065161317 
  132000    1082.5664    -10651.75   -10316.051    2864.0264  0.067343002 
  133000    1118.1489   -10662.779   -10316.047    2897.2249  0.069281729 
  134000    1131.0901   -10666.808   -10316.062    2931.3356  0.066850621 
  135000    1120.1738   -10663.419   -10316.059    2964.9062  0.060039915 
  136000    1123.2394   -10664.391    -10316.08    3000.9019  0.062656309 
  137000    1137.8853   -10668.927   -10316.074    3034.6263  0.069329469 
  138000    1107.7121   -10659.541   -10316.045    3067.2769  0.060011528 
  139000    1094.2601   -10655.354   -10316.029    3102.2095  0.062646458 
  140000    1095.7157   -10655.831   -10316.055    3137.7844  0.058390228 
  141000    1118.2652   -10662.828    -10316.06    3172.9677  0.060306099 
  142000    1121.5402   -10663.831   -10316.047    3205.8751  0.060020237 
  143000    1108.2899   -10659.729   -10316.054    3241.5291  0.065319416 
  144000    1110.6573   -10660.458   -10316.049    3276.2632  0.066855967 
  145000    1122.1817    -10664.04   -10316.057    3310.3169  0.058640017 
  146000    1106.1875   -10659.065   -10316.042    3343.4293  0.061621437 
  147000    1100.9829   -10657.483   -10316.074    3377.7628  0.060703004 
  148000    1115.1542   -10661.861   -10316.057    3412.4469  0.060479797 
  149000    1119.9732   -10663.358    -10316.06      3449.13  0.068397538 
  150000    1111.6193   -10660.746   -10316.038    3483.1987  0.064472213 
  151000    1091.0574   -10654.372   -10316.041    3516.3744  0.055939057 
  152000    1127.7854   -10665.779   -10316.059    3550.3069  0.063074213 
  153000     1120.504   -10663.509   -10316.046    3585.1339  0.061167097 
  154000    1106.9728   -10659.344   -10316.077    3619.6294  0.063215596 
  155000    1085.8529   -10652.764   -10316.046    3653.1371  0.064986679 
  156000    1091.6577   -10654.562   -10316.044    3688.0316  0.063678616 
  157000    1094.9068   -10655.566   -10316.041    3723.2487  0.065109234 
  158000    1110.0738   -10660.271   -10316.042    3758.4861  0.065026666 
  159000    1105.0687   -10658.705   -10316.029    3793.0554  0.063699155 
  160000    1119.2561   -10663.126    -10316.05    3828.5143  0.059649171 
  161000    1108.1877   -10659.667   -10316.023    3864.5957  0.062919065 
  162000    1104.4005   -10658.501   -10316.032    3901.0891  0.062437035 
  163000    1118.1309   -10662.759   -10316.032    3937.7426   0.06464656 
  164000    1101.8215   -10657.695   -10316.026    3972.3287  0.059789678 
  165000    1085.4428    -10652.61    -10316.02    4006.7504  0.061614971 
  166000    1102.5694   -10657.932    -10316.03    4040.5526  0.061180483 
  167000    1092.6331   -10654.829   -10316.009    4073.4662  0.056394244 
  168000    1101.8709   -10657.715    -10316.03    4107.9674   0.05874158 
  169000    1109.3615   -10660.023   -10316.016    4144.7224  0.061804154 
  170000    1117.8661   -10662.661   -10316.016    4180.9018  0.061414745 
  171000    1097.4529   -10656.327   -10316.012    4215.4034  0.058572701 
  172000    1110.4524   -10660.354   -10316.008    4251.5243  0.065761992 
  173000    1096.9044   -10656.145       -10316    4287.5222  0.067121955 
  174000    1106.1242   -10659.018   -10316.014    4320.9916  0.059268235 
  175000    1094.2567   -10655.338   -10316.014     4355.626  0.060990523 
  176000    1108.5503   -10659.751   -10315.995     4389.887  0.067838004 
  177000    1108.0477   -10659.611   -10316.011    4421.9382  0.069919458 
  178000    1093.4173   -10655.062   -10315.998    4456.0359  0.064025165 
  179000    1100.2703   -10657.188   -10315.999    4491.1981  0.066206526 
  180000    1107.6014   -10659.446   -10315.985     4526.708  0.064128333 
  181000    1142.1756   -10670.173    -10315.99    4561.3989  0.066839422 
  182000    1111.9422   -10660.797   -10315.989    4597.4876  0.062300795 
  183000    1119.3932   -10663.113   -10315.995    4631.1196  0.064552344 
  184000    1107.5116   -10659.418   -10315.984    4663.5006  0.064654063 
  185000    1102.3551   -10657.802   -10315.967    4697.4166  0.064943171 
  186000    1103.6032   -10658.213   -10315.991    4733.2012  0.063883533 
  187000    1118.6695   -10662.882   -10315.988    4768.8591  0.067615328 
  188000    1100.7677   -10657.322    -10315.98    4804.1926  0.061125259 
  189000    1116.5314   -10662.211    -10315.98    4838.4968  0.060651234 
  190000     1102.902   -10657.964   -10315.959    4874.1165  0.059538107 
  191000    1098.8007   -10656.704   -10315.971    4910.7988  0.059721157 
  192000    1108.3101   -10659.639   -10315.957    4946.2802  0.067423038 
  193000    1116.1603   -10662.081   -10315.965    4980.5742  0.064739137 
  194000    1104.3016   -10658.393   -10315.954    5016.2493  0.063052631 
  195000     1115.049   -10661.736   -10315.965    5049.6902  0.066461052 
  196000    1104.3006   -10658.382   -10315.944    5084.0573  0.059307805 
  197000    1106.3924   -10659.053   -10315.966    5120.1815  0.060194435 
  198000    1099.9962   -10657.043    -10315.94    5156.1059  0.061111881 
  199000    1110.3161   -10660.267   -10315.963    5191.3482  0.064774581 
  200000     1092.808   -10654.813   -10315.939    5227.6256  0.064135458 
  201000    1132.6176   -10667.146   -10315.927    5261.5493  0.065253282 
  202000    1116.1948    -10662.04   -10315.914    5295.6662  0.068622568 
  203000    1118.8771   -10662.892   -10315.933    5328.7508  0.063251773 
  204000    1097.2349   -10656.191   -10315.944    5363.3265  0.056320219 
  205000     1101.775   -10657.583   -10315.928    5399.0659  0.062613454 
  206000    1117.8748   -10662.569   -10315.922    5434.6919  0.064573028 
  207000    1122.7563   -10664.081    -10315.92    5470.8765    0.0623523 
  208000     1121.792   -10663.788   -10315.926    5504.7741  0.065556438 
  209000    1105.6231   -10658.745   -10315.897     5536.869  0.066113595 
  210000    1115.6864   -10661.884   -10315.915    5571.8064  0.058251372 
  211000    1118.4174   -10662.713   -10315.897     5605.927   0.06235816 
  212000    1107.5998   -10659.373   -10315.912    5639.3431  0.065175145 
  213000    1114.7546   -10661.591   -10315.911    5672.5336   0.06358264 
  214000    1147.7864   -10671.823     -10315.9    5705.6748  0.061483495 
  215000    1102.2098   -10657.684   -10315.894    5739.8179   0.06399513 
  216000    1133.2159   -10667.301   -10315.896    5775.4027  0.059990275 
  217000    1117.3426   -10662.389   -10315.906    5809.2966  0.062506589 
  218000    1097.1138   -10656.086   -10315.876    5842.7022   0.06581915 
  219000    1096.6763   -10655.945   -10315.871    5876.0596  0.065693403 
  220000    1134.7436   -10667.759    -10315.88    5909.1492  0.061226734 
  221000    1104.2747   -10658.316   -10315.886    5944.7699  0.058730726 
  222000    1109.9843   -10660.089   -10315.888    5979.9701   0.06124733 
  223000     1114.951   -10661.602   -10315.861    6014.6272  0.058913416 
  224000    1131.0536   -10666.608   -10315.874    6050.8916  0.065113289 
  225000    1130.4983   -10666.416   -10315.854    6084.2103  0.067134574 
  226000    1103.5027   -10658.046   -10315.855    6118.8365  0.063752571 
  227000    1132.6874   -10667.106   -10315.866     6153.532  0.066216107 
  228000    1096.2719   -10655.803   -10315.854    6191.4299  0.056474524 
  229000    1124.9884   -10664.714    -10315.86    6227.0959  0.060322805 
  230000    1131.1429   -10666.614   -10315.852    6263.3608  0.061182846 
  231000    1106.9733   -10659.134   -10315.867    6298.2757  0.058987994 
  232000    1103.5295   -10658.034   -10315.835    6333.2482  0.062918574 
  233000    1142.0959   -10670.028    -10315.87    6368.7196  0.063177567 
  234000    1082.1692   -10651.408   -10315.833    6405.1006  0.063283164 
  235000    1088.4605   -10653.374   -10315.848    6438.5456  0.065750365 
  236000    1101.8653    -10657.53   -10315.847    6473.3002  0.062454043 
  237000    1083.8692   -10651.958   -10315.856    6507.3149  0.066175999 
  238000    1098.6492   -10656.523   -10315.838    6542.8862  0.066392456 
  239000    1103.1647   -10657.925   -10315.839     6578.433  0.065848395 
  240000    1113.2381   -10661.063   -10315.854    6611.3124  0.062308407 
  241000    1135.7368    -10668.04   -10315.854    6645.1692  0.067003773 
  242000    1090.1939   -10653.906   -10315.842    6680.1294  0.063528493 
  243000    1113.6238    -10661.19   -10315.861    6715.9181  0.061608961 
  244000    1094.1414    -10655.13   -10315.842    6750.9288  0.062726339 
  245000    1116.9705   -10662.217    -10315.85    6786.4858  0.060125101 
  246000      1073.95   -10648.837    -10315.81     6820.484  0.058542635 
  247000    1127.0922   -10665.348   -10315.842    6854.0215   0.06078468 
  248000    1081.7858    -10651.29   -10315.834    6888.3162  0.060040177 
  249000    1108.2308   -10659.501   -10315.844    6922.6207  0.065134376 
  250000    1082.6597   -10651.555   -10315.827    6956.3821  0.070024465 
Loop time of 42150.3 on 1 procs for 200000 steps with 2400 atoms

Performance: 0.410 ns/day, 58.542 hours/ns, 4.745 timesteps/s
98.5% CPU use with 1 MPI tasks x 1 OpenMP threads

MPI task timing breakdown:
Section |  min time  |  avg time  |  max time  |%varavg| %total
---------------------------------------------------------------
Pair    | 42009      | 42009      | 42009      |   0.0 | 99.66
Neigh   | 116.39     | 116.39     | 116.39     |   0.0 |  0.28
Comm    | 11.609     | 11.609     | 11.609     |   0.0 |  0.03
Output  | 0.0059356  | 0.0059356  | 0.0059356  |   0.0 |  0.00
[...]
Neighs:         0.00000 ave           0 max           0 min
Histogram: 1 0 0 0 0 0 0 0 0 0
FullNghs:      251092.0 ave      251092 max      251092 min
Histogram: 1 0 0 0 0 0 0 0 0 0

Total # of neighbors = 251092
Ave neighs/atom = 104.62167
Neighbor list builds = 8460
Dangerous builds = 0

#------------------------------------------
# thermal conductivity calculation
fix             3 all thermal/conductivity 10 z 20

variable start_time equal time
variable kappa equal (f_3/(time-${start_time})/(lx*ly)/2.0)*(lz/2.0)/f_ave
variable kappa equal (f_3/(time-250)/(lx*ly)/2.0)*(lz/2.0)/f_ave

fix             ave all ave/time 1 1 1000 v_tdiff ave running
thermo_style    custom step temp epair etotal f_3 v_tdiff f_ave


run 200000
Per MPI rank memory allocation (min/avg/max) = 4.488 | 4.488 | 4.488 Mbytes
Step Temp E_pair TotEng f_3 v_tdiff f_ave 
  250000    1082.6597   -10651.555   -10315.827            0  0.070024465  0.070024465 
  251000    1103.1818   -10657.934   -10315.842    35.067455   0.06050752  0.065265992 
  252000    1098.5229   -10656.489   -10315.843    70.835313  0.061086257  0.063872747 
  253000      1146.68   -10671.416   -10315.836    104.92574  0.065028136  0.064161594 
  254000    1125.6543   -10664.891   -10315.831    140.76794  0.059463164  0.063221908 
  255000    1096.6284   -10655.894   -10315.834    174.70309   0.06874121  0.064141792 
  256000    1097.7285   -10656.228   -10315.827    208.26416  0.065599076  0.064349975 
  257000    1117.7367    -10662.43   -10315.825    243.62879  0.065712231  0.064520257 
  258000    1123.0298   -10664.076    -10315.83    278.12567  0.065373599  0.064615073 
  259000    1120.4568   -10663.259   -10315.811    312.72931  0.062002887  0.064353855 
  260000    1099.5227    -10656.77   -10315.813    348.37661  0.066279753  0.064528936 
  261000    1131.4219   -10666.667   -10315.819    382.27915  0.064392296   0.06451755 
  262000    1078.3782   -10650.203   -10315.803    415.31469  0.066053863  0.064635727 
  263000    1123.0798   -10664.071    -10315.81    452.03023  0.063128011  0.064528033 
  264000     1071.968   -10648.212     -10315.8    485.45199  0.064846286   0.06454925 
  265000     1144.467   -10670.708   -10315.814    519.02659  0.066918216  0.064697311 
  266000    1098.7817   -10656.552   -10315.825    553.79858  0.062248464  0.064553261 
  267000    1090.0052   -10653.809   -10315.803    587.74827  0.069339541  0.064819165 
  268000    1109.0067     -10659.7   -10315.803    621.99088   0.06109276  0.064623039 
  269000    1121.2545    -10663.49   -10315.795    654.30194  0.065585165  0.064671145 
  270000    1101.5113   -10657.361   -10315.788    687.49031  0.070685731  0.064957554 
  271000    1108.0112     -10659.4   -10315.812    722.67235   0.06655201  0.065030029 
  272000    1094.7358    -10655.26   -10315.788    756.31575  0.061142098  0.064860989 
  273000    1096.3139   -10655.757   -10315.795    790.53279  0.064059625  0.064827598 
  274000    1126.8415   -10665.225   -10315.797    824.68453  0.070440439  0.065052112 
  275000    1096.9447   -10655.935   -10315.777    858.05476  0.065376105  0.065064573 
  276000    1092.6632   -10654.617   -10315.788    891.57398  0.062075508  0.064953867 
  277000    1122.2143    -10663.78   -10315.787    926.91835  0.061436082  0.064828232 
  278000    1092.6599   -10654.596   -10315.767    960.46338  0.062473694  0.064747041 
  279000    1106.4763   -10658.915   -10315.802    993.99796  0.063804596  0.064715626 
  280000     1124.335    -10664.46   -10315.809    1025.2992  0.067189026  0.064795413 
  281000    1114.4937   -10661.395   -10315.796    1061.2755   0.06483165  0.064796546 
  282000    1101.4592   -10657.342   -10315.785    1095.4234  0.064447725  0.064785975 
  283000    1101.9327   -10657.492   -10315.788    1130.0771  0.056950931  0.064555533 
  284000    1093.6865   -10654.913   -10315.766    1162.9326  0.054553853  0.064269771 
  285000    1087.0312   -10652.837   -10315.754    1199.3318  0.059150728  0.064127575 
  286000    1092.8826   -10654.654   -10315.757    1232.3223  0.059119643  0.063992225 
  287000    1072.0423   -10648.176   -10315.741    1267.7306  0.062040461  0.063940863 
  288000    1110.1827   -10660.029   -10315.767     1303.676  0.062752619  0.063910395 
  289000    1104.8761   -10658.361   -10315.745    1337.7251  0.060751052  0.063831412 
  290000    1135.1962   -10667.785   -10315.766    1372.9739  0.065231592  0.063865563 
  291000    1119.1021   -10662.801   -10315.773    1408.1302   0.05998083  0.063773069 
  292000    1096.8156   -10655.881   -10315.764    1445.4197  0.058067323  0.063640377 
  293000    1103.3658   -10657.903   -10315.755    1480.5174  0.060279879  0.063564002 
  294000    1124.6156   -10664.505   -10315.767    1516.2031  0.062443691  0.063539106 
  295000    1106.2255   -10658.775    -10315.74    1550.9152  0.064924703  0.063569228 
  296000    1108.3673   -10659.455   -10315.756    1585.7077  0.058290623  0.063456917 
  297000    1096.6843   -10655.824   -10315.748    1621.0767  0.064127034  0.063470878 
  298000    1102.1011   -10657.504   -10315.748    1657.3437   0.06630209  0.063528658 
  299000     1100.161   -10656.891   -10315.736    1691.3149  0.062802769   0.06351414 
  300000    1089.0711   -10653.466    -10315.75    1724.2487  0.065260255  0.063548378 
  301000    1100.0762    -10656.87   -10315.742    1759.9267  0.065682461  0.063589418 
  302000    1090.5214   -10653.903   -10315.738    1793.7562  0.063611509  0.063589835 
  303000    1112.2964   -10660.646   -10315.729    1828.6917  0.066804423  0.063649364 
  304000    1118.6684   -10662.632   -10315.738     1862.441  0.071014332  0.063783273 
  305000    1107.1185    -10659.03   -10315.718    1896.8949  0.064686735  0.063799406 
  306000    1110.9111   -10660.222   -10315.734    1932.3879  0.062810112   0.06378205 
  307000    1104.8235   -10658.354   -10315.754    1967.2384  0.062698729  0.063763372 
  308000     1080.277   -10650.701   -10315.713    2002.6065   0.06491281  0.063782854 
  309000    1101.9146   -10657.411   -10315.713    2036.5281  0.060551736  0.063729002 
  310000    1113.7575   -10661.091    -10315.72      2070.33  0.062686029  0.063711904 
  311000    1125.0597   -10664.582   -10315.707    2105.5422  0.063449139  0.063707666 
  312000     1084.974   -10652.135    -10315.69    2139.6432  0.059961148  0.063648197 
  313000    1095.2413   -10655.326   -10315.697     2173.678  0.059207308  0.063578808 
  314000    1110.1341   -10659.937   -10315.689    2208.5759  0.058201345  0.063496078 
  315000    1130.4112   -10666.237   -10315.702    2244.7146  0.060400323  0.063449173 
  316000    1138.0328   -10668.592   -10315.693    2278.7962  0.063132439  0.063444445 
  317000    1114.8159   -10661.382   -10315.683      2313.21  0.059165426  0.063381519 
  318000    1111.8166   -10660.436   -10315.667    2349.0635  0.063828712     0.063388 
  319000    1119.5795   -10662.848   -10315.672    2384.7122  0.066198216  0.063428146 
  320000    1083.2169    -10651.57    -10315.67    2418.1704  0.060186819  0.063382493 
  321000    1110.8777    -10660.16   -10315.682    2452.7317  0.063155541  0.063379341 
  322000    1091.9205   -10654.266   -10315.666    2486.6492  0.056817686  0.063289455 
  323000      1108.92    -10659.53    -10315.66    2520.3914  0.058766862  0.063228339 
  324000    1136.6403   -10668.148   -10315.682    2555.9608  0.058795533  0.063169235 
  325000    1104.0384   -10658.024   -10315.668     2592.794  0.061886709   0.06315236 
  326000     1123.316   -10664.003   -10315.668    2628.1386  0.058587205  0.063093072 
  327000    1124.4913   -10664.366   -10315.667    2663.8321  0.061757521   0.06307595 
  328000    1113.4445   -10660.933   -10315.659    2699.6008  0.060837493  0.063047615 
  329000    1125.3524    -10664.62   -10315.654    2732.8468  0.060416743  0.063014729 
  330000    1117.0036       -10662   -10315.623    2767.5574  0.061518291  0.062996254 
  331000    1087.7673   -10652.938   -10315.626     2802.665  0.063732139  0.063005228 
  332000    1111.8931   -10660.438   -10315.645     2836.556  0.060946754  0.062980428 
  333000    1088.2419   -10653.084   -10315.626    2871.1252  0.063382476  0.062985214 
  334000    1108.8435   -10659.475   -10315.628    2906.7414  0.060574184  0.062956849 
  335000    1117.3717   -10662.118   -10315.627    2939.2193  0.067338943  0.063007803 
  336000     1111.205   -10660.182   -10315.602    2973.4723  0.065887046  0.063040898 
  337000    1102.5112   -10657.489   -10315.606    3008.9813   0.06593299  0.063073763 
  338000    1115.1036   -10661.382   -10315.594     3043.296  0.063201243  0.063075195 
  339000    1105.4298    -10658.38   -10315.592    3077.7404  0.063829465  0.063083576 
  340000     1118.349     -10662.4   -10315.606    3112.7795  0.066211629   0.06311795 
  341000    1131.2572    -10666.41   -10315.613    3145.9514  0.065044166  0.063138887 
  342000    1122.9846    -10663.84   -10315.608     3180.252  0.056271533  0.063065045 
  343000    1119.3181   -10662.685    -10315.59    3214.0442  0.059908441  0.063031464 
  344000    1098.6447   -10656.271   -10315.587    3247.2647  0.064315533   0.06304498 
  345000    1118.2645   -10662.352   -10315.583    3282.8118  0.058937938  0.063002199 
  346000    1107.2943   -10658.961   -10315.594    3315.9157  0.057741771  0.062947968 
  347000    1107.1586   -10658.906   -10315.582    3350.6761  0.058380427   0.06290136 
  348000    1122.6202   -10663.699    -10315.58    3385.4674  0.057209336  0.062843865 
  349000    1118.5285   -10662.424   -10315.574    3421.2632  0.064581646  0.062861243 
  350000    1094.4808   -10654.952   -10315.559    3455.9792  0.059454818  0.062827516 
  351000    1120.9452   -10663.162   -10315.562     3490.071  0.061922189   0.06281864 
  352000    1112.6937   -10660.603   -10315.562     3524.974  0.064593078  0.062835867 
  353000    1133.4819   -10667.057   -10315.569    3558.6225   0.06526453   0.06285922 
  354000    1128.2998   -10665.444   -10315.564     3594.154  0.065689439  0.062886174 
  355000    1104.9442   -10658.194   -10315.557    3630.4442  0.066562594  0.062920858 
  356000    1111.0398   -10660.114   -10315.586     3666.775  0.061375268  0.062906413 
  357000    1089.6254   -10653.424   -10315.536    3701.2622  0.060059145  0.062880049 
  358000    1116.5989   -10661.801   -10315.549    3735.1019  0.059194246  0.062846235 
  359000    1124.7516   -10664.329   -10315.549    3769.1168  0.061842402  0.062837109 
  360000     1097.171   -10655.768    -10315.54    3802.4824  0.062244788  0.062831773 
  361000    1101.4571   -10657.078   -10315.522    3836.7502  0.064990699  0.062851049 
  362000    1117.4481   -10662.063   -10315.548    3871.7398   0.06066226  0.062831679 
  363000    1100.7198   -10656.856   -10315.529    3906.7338  0.060934645  0.062815038 
  364000    1116.8193   -10661.872   -10315.552    3941.3999  0.061903441  0.062807111 
  365000    1102.5442    -10657.44   -10315.547    3974.9397  0.061290337  0.062794036 
  366000    1121.4795   -10663.317   -10315.552    4009.7153  0.059546348  0.062766278 
  367000    1128.7662   -10665.553   -10315.528    4043.6971  0.059561674   0.06273912 
  368000    1115.3654   -10661.419    -10315.55    4078.0414  0.062756139  0.062739263 
  369000    1121.6053   -10663.348   -10315.543    4112.1333  0.065921415  0.062765781 
  370000     1135.357    -10667.61   -10315.542    4146.0586  0.067270219  0.062803008 
  371000    1123.2743   -10663.862    -10315.54    4181.4112  0.063041099  0.062804959 
  372000    1108.6622   -10659.323   -10315.533    4216.4425  0.065789276  0.062829222 
  373000    1139.0175   -10668.731   -10315.528    4250.1583  0.063644166  0.062835794 
  374000    1125.4756   -10664.555    -10315.55    4285.4412  0.067400279   0.06287231 
  375000     1095.315   -10655.188   -10315.536    4321.0934  0.065714637  0.062894868 
  376000    1101.4119   -10657.064   -10315.522      4354.72  0.074021913  0.062982483 
  377000     1105.722   -10658.414   -10315.535    4390.5888  0.063241132  0.062984503 
  378000    1118.6506   -10662.433   -10315.545    4423.5656  0.062834306  0.062983339 
  379000     1138.798   -10668.681   -10315.545     4457.864  0.058988642  0.062952611 
  380000    1112.5406   -10660.543    -10315.55    4493.2813  0.065839501  0.062974648 
  381000    1116.5911   -10661.806   -10315.556    4527.9023  0.065219823  0.062991657 
  382000    1094.7575   -10655.003   -10315.524     4564.201  0.060635036  0.062973938 
  383000    1111.5815   -10660.225   -10315.529    4596.7691  0.062417346  0.062969784 
  384000    1123.1173   -10663.807   -10315.533    4632.6775  0.050956473  0.062880797 
  385000     1090.066   -10653.561   -10315.536    4668.5813  0.061687208   0.06287202 
  386000    1118.6443   -10662.419   -10315.533    4704.0662   0.05921203  0.062845305 
  387000    1109.6266   -10659.636   -10315.546    4737.0811  0.059464907  0.062820809 
  388000    1102.7287   -10657.472   -10315.521    4773.0143   0.06127073  0.062809658 
  389000    1096.9096   -10655.677    -10315.53     4806.977  0.065700276  0.062830305 
  390000    1103.3432   -10657.655   -10315.514     4841.472  0.064453423  0.062841817 
  391000    1127.9678   -10665.297    -10315.52    4877.2973  0.060036545  0.062822061 
  392000    1124.6149   -10664.255   -10315.517    4912.2092  0.064093489  0.062830952 
  393000    1143.0232   -10669.964   -10315.518    4947.8211  0.065170095  0.062847196 
  394000    1101.4058   -10657.042   -10315.501    4982.7579  0.069580484  0.062893633 
  395000    1101.4434   -10657.055   -10315.503    5017.4575  0.063730365  0.062899364 
  396000    1103.7378   -10657.771   -10315.507    5051.8552  0.065054567  0.062914025 
  397000    1079.9289   -10650.387   -10315.506    5086.2722  0.068295202  0.062950384 
  398000    1097.2599   -10655.757   -10315.502    5120.4493  0.066881679  0.062976769 
  399000    1127.9315   -10665.262   -10315.496    5154.5397  0.062156896  0.062971303 
  400000    1106.8586   -10658.726   -10315.494    5190.0863  0.064557867   0.06298181 
  401000    1117.9966   -10662.176   -10315.491    5226.8845  0.062257619  0.062977046 
  402000    1109.0677   -10659.402   -10315.486    5261.5586  0.061764474   0.06296912 
  403000    1110.2322   -10659.769   -10315.491    5296.9364   0.06523116  0.062983809 
  404000     1126.546   -10664.834   -10315.498    5330.4756    0.0597434  0.062962903 
  405000    1148.1385   -10671.537   -10315.505    5365.3209  0.063101879  0.062963794 
  406000    1112.4016   -10660.424   -10315.474    5400.6767  0.062358298  0.062959937 
  407000    1100.4328   -10656.704   -10315.465    5435.0668  0.065298929  0.062974741 
  408000    1089.3919   -10653.292   -10315.477    5469.5529  0.063088638  0.062975457 
  409000    1112.6761   -10660.515   -10315.479    5505.0863  0.065595701  0.062991834 
  410000     1128.698   -10665.481   -10315.478    5539.7488  0.064579159  0.063001693 
  411000    1120.8573   -10663.028   -10315.456    5575.5413  0.059399237  0.062979456 
  412000    1109.1683   -10659.411   -10315.463    5611.7376  0.055641013  0.062934435 
  413000    1089.0656   -10653.167   -10315.453    5645.5058  0.061012172  0.062922713 
  414000    1096.4105   -10655.457   -10315.466    5680.0525  0.061611449  0.062914766 
  415000    1100.8658   -10656.842   -10315.469    5713.0832  0.069072186  0.062951859 
  416000    1110.6123   -10659.875    -10315.48    5748.8682  0.063328543  0.062954115 
  417000    1143.3258   -10670.015   -10315.475    5782.5233  0.065359448  0.062968432 
  418000    1094.8115    -10654.95   -10315.455    5817.3758  0.068039019  0.062998436 
  419000    1128.9371   -10665.544   -10315.466    5852.3141  0.062268534  0.062994142 
  420000    1112.1766   -10660.352   -10315.471    5886.2773  0.067194985  0.063018709 
  421000    1130.5673   -10666.054    -10315.47     5921.854  0.060897447  0.063006376 
  422000    1109.6613   -10659.558   -10315.457    5957.2867  0.067882407  0.063034561 
  423000    1107.9267   -10659.028   -10315.466    5993.1894  0.070340528  0.063076549 
  424000    1101.0711   -10656.903   -10315.467    6026.5217  0.064479645  0.063084567 
  425000    1105.1986   -10658.181   -10315.464    6061.6065  0.062457157  0.063081002 
  426000    1109.7002    -10659.57   -10315.458    6095.2108  0.062998865  0.063080538 
  427000    1121.8704   -10663.374   -10315.488    6129.9528  0.064277828  0.063087264 
  428000    1104.8671   -10658.075   -10315.461    6166.7815  0.062928049  0.063086375 
  429000    1111.8616   -10660.256   -10315.473     6202.025  0.060383048  0.063071356 
  430000    1121.0066   -10663.071   -10315.453    6236.9563  0.067257306  0.063094483 
  431000    1102.8019   -10657.429   -10315.455    6270.1793  0.063068742  0.063094342 
  432000    1108.9933   -10659.335   -10315.442    6303.5571  0.061525936  0.063085771 
  433000     1112.322   -10660.366   -10315.441    6337.0409  0.068905746  0.063117401 
  434000    1108.4204   -10659.167   -10315.451    6371.2824  0.057419576  0.063086602 
  435000    1096.4003   -10655.402   -10315.414    6405.9665   0.05642035  0.063050762 
  436000    1091.6544   -10653.936   -10315.419    6441.2492  0.058664732  0.063027308 
  437000    1118.4515   -10662.238   -10315.412     6476.906  0.060886084  0.063015918 
  438000    1101.1342   -10656.871   -10315.415    6512.0235  0.065014558  0.063026493 
  439000    1124.2252   -10664.046   -10315.429    6546.8604  0.064765594  0.063035646 
  440000    1087.8166   -10652.731   -10315.405    6582.7464  0.067567787  0.063059375 
  441000    1116.5919   -10661.698   -10315.449     6615.456  0.065818367  0.063073744 
  442000    1101.1133   -10656.891   -10315.441    6648.4936  0.066737041  0.063092725 
  443000    1096.7332   -10655.499   -10315.407    6681.6496  0.062567787  0.063090019 
  444000    1106.7621   -10658.627   -10315.425     6717.163    0.0613521  0.063081107 
  445000    1117.7273   -10662.019   -10315.417    6750.2875  0.064318983  0.063087423 
  446000    1111.8788   -10660.194   -10315.406    6782.7952  0.054726571  0.063044982 
  447000    1106.9323   -10658.661   -10315.407    6816.9415  0.060124594  0.063030232 
  448000    1104.1371   -10657.791   -10315.404    6851.2843  0.058979679  0.063009878 
  449000    1095.5378   -10655.109   -10315.388    6886.9078  0.062612006  0.063007888 
  450000    1091.7452   -10653.935    -10315.39    6921.2677  0.062704278  0.063006378 
Loop time of 41932.4 on 1 procs for 200000 steps with 2400 atoms

Performance: 0.412 ns/day, 58.239 hours/ns, 4.770 timesteps/s
98.7% CPU use with 1 MPI tasks x 1 OpenMP threads

MPI task timing breakdown:
Section |  min time  |  avg time  |  max time  |%varavg| %total
---------------------------------------------------------------
Pair    | 41791      | 41791      | 41791      |   0.0 | 99.66
Neigh   | 117.18     | 117.18     | 117.18     |   0.0 |  0.28
Comm    | 11.085     | 11.085     | 11.085     |   0.0 |  0.03
Output  | 0.0052575  | 0.0052575  | 0.0052575  |   0.0 |  0.00
Modify  | 9.6505     | 9.6505     | 9.6505     |   0.0 |  0.02
Other   |            | 3.755      |            |       |  0.01

Nlocal:        2400.00 ave        2400 max        2400 min
Histogram: 1 0 0 0 0 0 0 0 0 0
Nghost:        4919.00 ave        4919 max        4919 min
Histogram: 1 0 0 0 0 0 0 0 0 0
Neighs:         0.00000 ave           0 max           0 min
Histogram: 1 0 0 0 0 0 0 0 0 0
FullNghs:      251080.0 ave      251080 max      251080 min
Histogram: 1 0 0 0 0 0 0 0 0 0

Total # of neighbors = 251080
Ave neighs/atom = 104.61667
Neighbor list builds = 8459
Dangerous builds = 0
print           "Running average thermal conductivity: $(v_kappa:%.2f)"
Running average thermal conductivity: 8.26

write_data	Therm_${Tsim}_restartpoint.lammps
write_data	Therm_1100_restartpoint.lammps
System init for write_data ...

Total wall time: 26:21:26
