LAMMPS data file via write_data, version 29 Sep 2021, timestep = 450000

2400 atoms
3 atom types

0 22.166496714344166 xlo xhi
0 33.24974507151625 ylo yhi
0 44.33299342868833 zlo zhi

Masses

1 18.998403163
2 6.938
3 22.989769

Atoms # atomic

1411 1 2.3549124279321965 3.2410763148303205 2.708662040959336 -1 1 0
699 3 4.220389983513299 3.6903614781967797 1.1968507063658056 1 0 0
160 2 1.1050582004764868 4.080123270726181 1.4727397019467954 4 1 -1
1695 3 2.2774236636059095 1.0272882145744688 1.6712694145424714 0 0 2
1043 1 1.0183926429503678 33.147864098486544 3.674088980152371 -1 -1 1
2169 2 2.127014656863881 4.617093042370095 3.882896179560709 1 0 0
713 1 0.583079854735313 0.3363760141666454 0.36307843009582896 -2 1 1
1806 1 6.470863488801257 2.4204546172162544 2.485025818359098 1 -1 2
1556 2 7.2631114311373555 2.916644499274696 1.158782265135267 -2 1 1
521 1 9.177449960399507 3.3767176823977043 1.6000300145235262 1 0 0
131 1 11.448047664468941 2.9993878760136328 0.10436365086910958 -1 0 0
285 3 8.67211309998758 2.254299092975573 3.557344780858524 -1 1 0
1900 3 9.528300350554893 1.3037139476265929 43.39656862177708 0 -1 0
1679 3 11.59467893408421 0.3308069405672533 1.6662887734892617 -1 1 0
1588 3 15.257373506888152 1.792325404027446 2.443434932529056 0 -1 0
210 1 14.180377608507595 2.6973736552830347 42.25460073113853 -1 -1 0
511 1 13.73754024250391 1.2028790125217756 1.0881013599742677 -1 3 0
1625 1 16.599763846043768 0.4127547190179108 1.30957000094057 -4 2 1
954 2 17.70452319553743 3.2419286851296873 2.925451070596871 -3 0 -1
2063 2 16.781283268572793 3.6459524951429643 0.2743715894250782 1 2 1
498 3 19.7645316226998 1.5519890107163963 2.7086452538517665 1 0 0
1544 1 21.821077125224168 2.6510714980323424 2.342351872594061 0 1 1
1287 3 19.891906154878846 3.3036597556362657 44.11714329704222 0 -1 0
1651 2 3.656267297999352 7.7308996860026635 3.740135662446466 4 1 1
630 1 2.5662182754630383 6.066017518137563 3.064614617766971 -1 0 0
1966 2 21.524844733705642 6.3672145063820516 3.5890319786642624 0 0 1
1319 1 5.54273488373639 7.580969300816008 4.0148103898080425 -1 0 1
783 3 6.239916886217392 8.594284303569674 1.9888182798127108 -1 0 0
419 1 7.558648780077449 6.103763785994502 2.0934086700088885 -1 1 0
545 1 11.035669244139937 5.646991527504923 2.8728466158046957 -1 1 -1
1056 2 9.042824663213507 5.137176590979423 2.4784846434740544 0 2 1
2277 3 9.180287677402644 7.494236347210511 1.3649737764410648 -1 2 1
1867 2 9.595854802119634 4.163760251363593 0.08406231575626322 0 -1 1
461 2 11.599072847940613 3.9758367301129276 2.2087826786494373 -1 0 0
1753 2 13.016723318498345 2.6659738145554015 0.32145570170245463 -1 1 0
549 1 13.496561051714801 4.849667152653409 1.0107639032654177 2 1 1
2361 2 14.52177458546551 5.549551875723161 44.323472666358626 1 2 -1
869 2 13.584451691427859 5.925171936541551 2.9359397894848303 -3 0 0
26 1 16.125729483217956 3.731397297353616 1.7989024392291877 -2 0 1
79 3 18.249529986596855 5.818991546272474 1.9085406759170764 1 0 -1
2326 1 18.868405944891354 3.607327711209109 1.5295670935238765 0 0 0
1568 2 20.515752876263285 4.445455270498096 2.6680398564942234 0 2 1
1142 1 19.32883276202146 6.322724525656873 0.07787278560812552 -1 1 0
1911 1 19.772506657292347 6.269918880405824 3.4832874341697586 0 1 1
603 1 22.046986676209364 5.415336644685124 1.760237954925876 -2 0 0
774 2 3.6357955375077355 8.492011452571788 1.0790971379614103 1 0 1
1133 1 0.2444866102494443 8.079481616253238 2.402718689465944 1 1 1
138 1 3.2581078987342926 8.98091963220061 2.7128406173817474 2 0 0
1628 1 6.030364063088553 11.104868330561025 3.494580057852194 -1 2 1
991 3 4.970619787530255 12.13915169646705 1.787006639451103 0 0 0
731 1 5.115380774036366 7.773513171063001 0.1678697284968922 1 -1 0
2296 3 9.97024314731065 10.106088364493957 2.480078858241372 -2 -1 1
1338 1 9.869899593938527 7.9326105074948465 3.583191603337892 1 0 1
1798 3 10.15597388320562 8.506867136601688 5.605953976451284 0 -1 -1
1202 1 10.903271544704204 8.777773169040923 0.9916170869349479 -2 -2 0
638 1 13.67994616147932 7.540508555619064 3.1914771409493903 -2 0 -1
1578 3 11.657622459790744 8.094769765704672 2.870504113433566 0 1 0
947 1 15.505652182840642 9.908096109765662 1.5188030248648063 2 -1 1
963 2 13.661993002096581 11.490367128781433 4.393582990586686 0 1 1
1697 3 13.245859146997688 9.486573080413562 0.8009606969605119 3 2 1
1256 2 15.558353177715446 8.209769436274765 1.6158610006824785 -1 -1 1
1725 1 16.62001148200956 7.114945015608391 1.9553445795922164 0 1 1
484 3 16.778515269617433 10.42318692105309 3.580985457041785 -2 1 1
184 3 19.766596031276002 8.188477925190739 1.106583133816975 0 1 0
1141 1 19.625640889576704 9.419523371990962 2.846150896488646 1 -1 0
588 3 21.56426399711636 9.927398087492787 3.0190193438281097 0 0 1
2210 1 1.753967942973171 10.896505886598709 4.06326927979799 3 0 -1
448 1 1.1896430640005424 12.579407411758593 1.7033220819472223 -2 0 0
2165 2 2.628608378510951 10.736506374921305 2.368914926465952 0 0 1
879 3 1.6013004997065736 14.774700139463498 1.8896549866393424 0 0 1
2260 2 21.939947889486426 12.912491511351508 3.0070278965836286 0 -1 2
793 3 4.685136585338785 15.094562608345292 3.488450345284222 1 -1 0
1748 1 3.7883828487714504 13.184260406722867 3.2838194477900697 0 1 0
7 1 6.885324429278902 13.343749281114434 1.1585510445688247 1 -1 0
1088 3 7.958435098849756 12.839577662239662 3.6005211922704468 0 -1 0
650 1 9.533767385170595 12.044826096349151 1.5716356761002783 -1 -1 0
1619 1 8.736710849891095 10.811281072381338 4.168121407770056 4 3 1
743 1 12.409158183598175 10.403767564542957 3.4744194300978997 1 -1 0
1011 1 13.43561595688873 12.085117658642424 1.0528617217180278 -2 1 0
598 3 11.597784364970693 12.733873754564023 3.1613691056945656 2 0 0
1147 1 15.056790062644795 12.7318617431207 3.7077603056379567 -1 -1 1
392 3 15.484339827007613 12.35241061383062 1.406291340046932 -1 0 -1
39 1 17.798682085198635 12.017431711656851 2.339292993972092 -1 0 1
84 3 18.394890902875698 14.06858721497874 1.5671785958291302 2 0 0
594 3 18.684586758533978 12.70765660478313 4.443248232541039 2 1 -1
608 1 20.63201077681484 11.891683422203718 3.3920586693091574 -2 -1 1
439 1 20.66605352745224 13.762669126712908 1.6180989631756348 -2 2 0
664 2 21.684421941988433 12.726959700134149 0.5185140589434626 -1 0 1
678 3 0.4478268785625752 16.44744426966173 4.3697024346309865 0 1 1
729 1 1.9470023067976672 16.94445832985407 0.5958646922533297 1 -1 0
566 2 0.87215187806363 17.463545866230753 1.7775542103319877 -1 0 1
744 1 2.1868884357000407 16.727850698163984 3.1776862496017433 -1 0 1
2058 2 3.799432779281172 17.218777646593107 1.6000900146108594 1 -1 1
845 1 5.019177107875976 17.085297406676407 43.95132422489894 -1 -1 0
917 1 5.518833117149149 16.80166573661107 2.157948762111805 -1 -1 1
1293 3 6.583472171208444 15.926340922369553 0.5535974090474942 -1 -2 -1
2211 1 8.654649599646426 16.00405026025105 1.4255220022841693 -2 1 0
177 3 9.223313484786342 15.565805522418062 3.9495509552359698 2 1 -1
193 3 8.949937544936384 18.21134780443463 1.962410387174015 0 2 0
1829 1 10.936615956823717 16.919582696020214 2.7870062198662287 -2 -2 1
1176 3 11.07068269706322 16.18949941783018 0.8617668797142217 0 -1 0
1348 1 13.48767819299419 16.468310978836662 0.7771240667001159 1 -1 0
2283 3 12.873243098437943 17.331908448511907 3.4474815474054488 0 1 0
1656 2 15.023967136657049 16.61516124618416 1.5923033743662114 1 2 0
1545 1 16.586178286925 17.989329363275075 1.9714017857729216 2 -1 1
700 3 17.242875148183003 17.590510770255744 4.054796564468136 1 1 0
1436 1 16.059541711369235 15.066000464859064 1.1250162275889717 -1 3 0
240 1 18.02849014427065 15.398238484280625 3.172505876416777 -2 1 1
303 1 21.042498629106106 17.63040177266019 42.86237109425006 2 0 -1
742 1 19.07985460179192 17.63906730145093 2.0484652258366123 2 -2 1
1784 3 20.064994043098032 16.22610956214479 0.8025490376898685 -2 2 2
1342 1 21.64844635925685 16.515028539324625 2.2812321780404843 1 2 1
305 1 4.006890455779008 18.845046881847 1.9021512082236471 1 -1 0
1100 3 1.2824760745348722 21.29886071965968 2.342062702902778 -1 1 0
1920 1 0.672444866342717 19.171980912318226 1.4586070620069587 -2 1 1
781 3 3.309639271603586 18.67856028679559 44.00545275512647 3 -1 -2
391 3 6.187275515269419 18.79648250166866 2.140510670220085 -1 -1 1
123 1 5.593351668120085 20.6574661705629 3.5723214739228597 -1 -2 0
1008 1 7.778631982954903 20.32184141067135 2.1508549577882783 -2 -1 0
872 2 9.515066931369555 20.736109018764427 2.190615671676166 -3 2 1
1645 1 10.199241542299706 19.82239933262016 0.8385426838852682 1 -1 0
1849 1 10.819971260227241 22.469263896616006 1.7239736636056344 0 -1 1
1701 1 13.215282061004114 21.643883361196384 0.451403389884182 0 0 0
2193 3 12.18736258574657 19.42611515475702 0.5976890658602846 0 -1 1
2252 2 15.247838782482132 19.401000469908347 1.4016382762701196 -1 1 1
1538 1 16.435136258643375 20.79066851662282 1.2034668972028297 1 0 0
2172 2 17.365609366079347 19.643909361391664 2.8558387298014734 -2 0 1
878 3 14.983685542442569 22.10280419896084 1.8351855000398374 -3 0 -1
1282 3 20.45376132553759 19.184449140485693 2.513653731959923 -1 1 0
1921 1 18.743704454610434 20.528132242787027 3.268623345837086 -1 -1 0
500 3 22.143060016312877 23.497793707508116 4.159372405980589 -3 -1 -1
931 1 3.0681014869597645 22.683222682214023 1.8635489912041592 4 2 0
295 3 0.9534642512843267 25.591897512236837 1.977928313286933 2 0 1
142 1 5.797692077639218 24.548688767756605 1.9923984067604856 0 -1 0
1482 3 6.563475689422119 22.494734013114247 2.703043592273621 1 1 0
2384 3 4.6138683103659615 25.728703078358553 0.7447503232365907 0 0 -1
906 1 6.44979778611957 22.11416313483337 0.1267336457072529 -1 0 0
988 3 4.637287337796222 21.1082932540596 1.077994373880983 -1 0 1
833 1 8.518009341717017 24.185996321449693 1.4246058528484158 -2 0 1
1454 2 7.523595551050577 25.819126890187402 0.7806825510049655 1 0 0
2288 3 9.457233391416388 24.039850676646548 3.2932353000151005 0 0 0
87 3 10.429851859537166 24.81805109631771 0.5276131844219072 -2 -1 0
1639 1 11.550246133678 25.0089444053113 2.5567679921078796 0 1 1
1972 2 7.82017029888485 23.270047786260264 44.244917420601375 1 -2 -1
378 3 12.935661932578535 23.92738938734487 1.3523400588316739 2 -1 0
1514 1 13.86463572162478 25.67232641881151 0.14684256756336841 0 0 1
179 3 15.1236306768714 24.736289622483454 42.853563020413006 1 0 0
1940 1 18.72074215788795 22.993510209964306 1.211624322607113 0 0 1
659 2 15.541895057592292 25.644503961816675 1.0964144802024243 0 -1 1
1951 2 17.22722658016831 22.835727216096643 2.0239301421871603 2 0 1
318 1 16.127782706228327 23.870171360891494 1.0015715531547644 0 1 0
847 1 18.647422860979802 26.88288964058044 1.988220570003706 -1 0 0
2386 3 20.197582131494716 22.280003320542225 2.4913084453764465 -1 -1 0
1924 1 21.648323361155718 23.971045554539938 1.8359907257319372 0 -1 1
2096 3 18.040186550415996 25.04713442913146 44.315393444665794 1 -1 -1
1838 1 20.018601428587587 23.724932228097224 4.141616865564974 0 -1 0
485 3 2.142344211388368 30.743518196987413 0.5682649243358705 0 0 1
1550 1 1.99520462766902 27.81302049639183 0.9230509810358141 -1 1 0
626 1 3.298589739382157 25.608325577612884 2.6271675023911127 0 -1 1
1391 3 3.9507160797758676 28.558093709127423 1.7857073562349082 0 -3 1
37 1 6.298870865105226 27.341811408437884 1.3767083377317326 -1 -1 0
1215 1 6.482880001733564 30.21093387364249 2.095147434647819 1 -1 1
728 1 4.454224331430499 29.874268817436526 0.025966060193714915 2 -1 1
2023 1 7.074288470993278 30.866965653706053 43.65335854235839 -3 1 -1
1835 1 9.31925579375525 26.535076246300537 1.0662124064788168 1 -1 1
1777 3 9.31563324565288 28.795961071095768 1.8072230512144638 1 0 1
1143 1 13.615117901535001 29.259543873345393 0.4162573373494074 0 0 1
1765 2 12.156272917094736 29.74623884967359 1.2717201457760414 0 -1 1
1005 1 11.35212495059029 28.524021984455526 2.5962504939589754 -1 1 0
2294 3 13.294512240258568 26.990471438619604 2.0553589328724535 0 1 0
537 1 16.081080911465843 27.160043538400206 0.22573844614239444 1 0 1
1481 3 16.44422279686812 29.220098626190882 1.410650340096837 0 0 1
1058 2 17.190015679917927 26.610838360276155 3.3588512715415058 0 1 1
884 3 17.60632348347692 28.09892099326539 43.31647741213551 -1 -1 0
2225 1 16.83254099109177 29.872813858719432 43.37095657145779 -1 -1 0
1016 1 19.367064288704295 29.723834312282538 0.6671852766021382 -2 0 -1
155 2 19.947387823708713 28.580688714776834 2.1502768801706202 2 1 0
2200 3 20.670173344577776 27.508816594176974 44.218719325018675 0 -1 -2
1614 1 21.18992329733979 27.399054812189366 1.8579522940690094 2 -1 0
1105 1 3.751931872887939 0.4281608228336209 3.9739749780922207 0 2 0
211 1 22.00170216948422 30.316478194795547 0.7669670057893259 0 -1 1
2020 1 2.9112730049137965 30.336686841142477 2.808226405712202 2 2 0
686 3 4.481217887877829 31.566702305287983 2.963096982385412 -2 1 -1
548 1 5.485957930789058 32.6928615050793 1.3441827204145114 0 0 0
1767 2 5.730804113944727 31.248723535408075 0.4713208944565201 -1 0 0
1262 2 5.418890817667116 0.8743960172395157 0.19064145614416028 -1 1 -1
1865 2 7.227900376834573 0.4116471212271622 1.7930712741956414 2 1 0
203 1 9.354345821096862 30.6717641645076 2.844217376231092 -2 -2 0
2098 3 9.039444941591858 31.371080204297755 0.3653987610792528 0 -1 1
1602 1 9.470121826452338 33.22597277661914 1.3770660588184693 0 -1 0
1861 2 9.563274350022217 32.58349444022637 2.9912167020077463 -1 -1 1
939 1 12.58936159219063 31.64694805384045 1.6471607661093821 2 0 1
891 3 14.720568170188804 32.33916508825301 1.8868110919294088 -1 -1 1
150 1 10.499658023945045 29.624465965235107 0.053556614081618 -2 2 0
1730 1 14.896320602062245 32.037613720645275 44.030868887309644 -1 0 0
271 2 16.727414499245924 32.11313180886232 44.26370640625137 2 -1 -1
1938 1 16.8342484499738 31.07972885595126 2.2547162219619046 0 -2 1
1969 2 18.594534430664876 31.183314692013862 1.3456082891547445 -3 -2 1
19 1 19.110687270860833 32.42265461144276 2.3767507339697556 -1 0 0
1193 3 21.84938272637405 32.38445337095275 1.9250042117386004 -1 1 1
14 1 18.56089394048788 32.20504007167887 43.807721946733515 1 -1 -1
1081 3 2.171600406770726 1.7551787509780945 4.436256035288654 1 -1 1
334 1 2.4939794468706205 3.622390378898441 5.655324629890015 0 1 1
1752 2 1.7428165381762009 2.839101010859952 6.949352323375137 0 1 0
200 3 5.859438087554292 1.2218788659914375 4.160706072898706 2 1 -1
683 3 4.3994646800423425 3.740885618661818 6.681593929099553 -1 1 0
2318 1 6.110775034500964 3.3625520309328243 5.175812226813641 -1 0 0
423 1 7.743881452111056 0.10028513686100739 3.573737814167808 -1 1 0
1191 3 7.8119526575249445 3.8514581599897504 6.381087423499129 3 -1 -1
981 3 7.370650952140236 32.99010265248917 6.287278887177263 1 0 1
2006 1 11.031786185044083 0.26020579241592084 3.738337408629345 -1 2 2
1038 1 9.503617409766148 2.2821116492802043 6.302482296128031 1 2 0
153 2 10.694597802789735 1.8638482302501627 5.104841271728918 -4 -1 0
2262 2 12.401492560207448 32.863311011728726 4.705018902810903 -3 -2 1
2311 1 11.823881715970849 0.6645746706227911 6.265434481730635 1 1 1
1471 2 16.989806294769433 32.80020079136168 2.9550243367057116 0 -2 0
2126 1 14.323465905646342 2.490123953905478 4.552342663222154 1 0 0
1596 3 15.343346973091494 0.7787529890177536 5.988757486618941 1 3 0
2363 2 19.79506340767814 2.2678895464512423 5.176703624949399 -3 1 2
1839 1 17.256954819920022 1.9112227768122716 3.809913843613054 2 0 1
1409 1 19.87180567922807 0.5527777792602807 4.657278699795756 1 1 1
472 2 18.074234919314755 0.7088897609541122 5.102134251194598 -2 1 0
1138 1 0.3219627090051964 4.116828972437223 7.793741800408749 -1 1 0
531 1 0.2911179901755396 4.963624499427745 4.359648670796201 0 0 0
1785 3 1.9079490957374452 5.771510604322422 7.60034762367274 -1 2 1
2184 3 6.084503583771144 5.3563170307675945 3.758647105876247 2 0 0
436 1 6.544346877806477 5.582060491705279 6.265304330052268 -1 0 0
1897 3 5.381389463621755 7.665280346401425 5.961739376878211 1 0 0
415 1 11.2743889033145 3.109303247268203 3.804574542585764 -1 2 -1
1842 1 8.767841101382103 4.762461337899686 4.430887419627237 1 1 1
828 1 10.130157360823878 6.437742236286428 6.614649652129321 0 1 0
1757 2 10.537453619010712 5.3712428773846606 4.970903091441752 2 0 0
1796 3 8.220457140187781 7.0232339731474775 4.472166637655721 0 1 -1
1968 2 12.848147664115213 3.7169103081971646 4.74999268495473 0 0 0
1555 2 11.916779266414922 8.37652324505894 8.093744882334033 3 1 0
1724 1 12.163220601285678 4.024310683651997 6.268719917044861 0 -1 0
2320 1 13.774754827703898 5.265841475706916 4.532499517158092 2 0 0
183 3 16.258982267699164 3.2068473254440906 6.598176308747824 1 -1 -1
968 2 15.183828611961852 4.077216902104365 3.915815296421479 1 2 0
827 1 16.80117940421335 4.824752986124395 4.54823112422611 -1 1 1
2025 1 19.558683066625118 3.5941083226026844 3.999677194700057 -4 0 0
1170 2 21.392807033464695 4.66412253016612 6.195291203567216 -1 1 1
817 1 20.674877740884085 6.383351188148141 6.3279065759231825 0 0 0
749 1 20.30273083449414 3.228148660058246 6.6459772928528915 0 1 1
794 3 18.88416294541939 5.267742189241933 5.317296471931087 -1 2 0
1290 3 1.463980155955189 8.627489868343448 4.255854067815897 1 -3 1
2141 1 3.0955359770482547 7.791466742953815 5.612786244217162 2 -1 1
960 2 2.7475244654331874 8.950161634752387 7.582605311219889 0 2 1
380 3 21.98996960309194 8.32708913933787 7.52599567151553 -1 0 0
130 1 1.3503059562796274 10.08600584260641 7.035466326832578 -1 2 -1
698 3 4.220202429619746 10.191548320946344 4.977863316721778 0 1 -1
88 3 3.740955651094006 11.407283379451313 7.958208505783641 1 -1 0
2143 1 7.3213997939507625 12.355537268094036 5.8272183440498475 0 1 0
1150 1 4.615049272606968 9.25051278345321 7.513317529303935 0 2 0
291 3 6.836097989628219 9.501321283920376 7.936411020298523 0 1 0
428 1 7.735474656618542 8.766570603168455 6.084739442825733 2 1 -1
866 2 7.269098849679302 10.714254195572272 4.922232750288089 -2 0 0
1649 1 10.128614646618452 9.913708622506165 7.184246734403989 -1 1 0
710 1 12.931905754896702 8.624710599383022 6.365835781691935 1 1 2
2214 1 12.80467603237366 12.671651413165325 5.623006325603458 1 3 1
1977 3 12.72120529351458 10.953836235601868 7.230536179791968 -1 -1 1
2304 1 15.42062071092849 7.680348421139685 6.248063473583375 1 1 1
1467 2 14.425812562395269 8.684677646049485 5.101165806783246 1 -1 0
2359 2 14.462051327898159 8.836107746259952 7.462072227778937 2 1 0
1417 1 15.37074444436879 10.053105507133116 4.940665021117531 0 0 0
1396 3 16.26853681133457 7.078940853875791 4.2011898126168505 1 -1 0
1014 1 15.547165942020676 10.085466259501327 7.754062796632945 0 0 0
1324 1 18.076936786939097 7.4553041199330075 5.77502619329513 2 -2 0
1200 3 19.74750199577597 8.823710696378043 5.223167486843861 0 1 1
1235 1 18.465632719182654 10.585326974708893 5.278722575057664 1 1 1
848 1 21.874559112113744 8.92387126488344 5.234646092153845 3 0 0
764 2 19.28279361308977 7.3227570700290885 7.174056080108673 -1 2 -1
1203 1 19.872863880279954 8.918342480425663 7.580744131922549 -1 0 1
346 1 0.9278556230619577 13.507147546884207 4.3195832254020115 -1 0 0
151 2 2.468565606484259 12.542966058301786 4.086064907513793 0 0 -1
1483 3 0.30042016496343693 11.261371225680369 5.614440334150757 1 0 0
2219 1 4.000235941960924 12.23581585338989 5.8615893770967435 0 1 1
1473 2 5.6070017270599815 13.051010708443991 5.7715301030585 1 -1 1
1216 1 6.969462680025851 14.985307889072006 4.607478125725942 -2 -1 0
1121 1 9.782201273705082 13.581847838240478 4.622761047163822 -1 1 0
1299 3 9.432721172625017 11.676113709952533 5.905300514265378 -1 0 1
1039 1 5.055545275188189 12.698720494891669 9.040760326836073 -2 0 0
1962 2 13.994587889291694 14.025740436968844 4.739103660896677 0 1 1
1331 1 12.682493402034154 15.597230238409114 6.885183775409965 2 1 0
1156 2 11.139263409138762 14.042691212084089 5.534369123061487 -1 0 0
569 2 16.07864326952909 15.192216863123113 3.072320581862317 -2 1 1
490 3 17.33829886560415 9.15978187101474 6.713217000445781 -1 1 -1
1091 3 18.980926421931873 14.741892992819201 9.504280575003255 -1 -1 1
134 1 15.094116864946235 14.603967011978702 6.113934567720283 2 0 0
1571 2 17.86987694093871 15.13990257866478 7.232381752029635 3 0 -1
1004 1 18.60785920292372 13.58690263998264 6.385071349986378 -2 0 0
495 3 19.437895407053567 12.004328520001009 7.543743549272571 -1 1 0
503 1 21.962169094517368 12.621093673206316 7.166029753830221 0 2 0
941 1 1.6794240778999303 14.96696356481548 7.21540391082402 1 -1 0
413 1 1.5790944487504355 18.018347950435462 5.846382022068142 0 0 0
2282 3 3.3789331061339696 15.336870743403107 6.136908958618662 -2 1 0
815 1 5.6495589473232535 14.831658233751998 6.660509131777942 -1 1 -1
761 2 6.471314637383531 16.7351416894348 4.337732231603896 1 1 0
732 1 4.7912578401684645 16.631392074382735 5.017803927682671 1 -1 0
2301 1 10.308699730016897 16.026088845824034 5.5422559863388265 0 0 0
215 1 7.471418066713468 17.922737919583344 4.222304361609895 0 0 0
185 3 7.936233367185134 14.971791123359825 6.614962697823259 1 0 0
1387 3 10.347731705226595 18.075221156834452 4.7707523721946625 0 -1 0
2014 1 12.599001044393896 14.651944104402654 4.171499891455639 1 2 0
962 2 12.089237402282167 16.102456687667633 5.42414097120795 -1 0 1
136 1 12.459111282542617 17.814028363624978 5.450034370386293 -1 1 -1
232 1 14.740266978886911 16.528494411771312 3.809344746652704 -1 0 1
2377 3 14.566310967107366 16.74700110411012 6.024112126677357 1 1 1
1889 3 14.074031624819368 20.248177003488234 5.105021432028487 0 -1 0
34 1 18.07680185907548 17.110745983095825 6.050856336029896 1 -1 -1
679 3 19.998952496728872 15.887520483185611 3.973702862297459 -1 -1 1
1371 2 21.932326188181488 19.121624515129646 7.390211397223932 -1 -2 -1
1220 1 21.24896643874432 15.641374504216078 5.983278659084278 0 0 0
1716 1 20.48414919531241 18.628614684651154 4.92856890424881 2 -1 0
74 2 19.57838008326419 17.656478145104373 6.467731285211629 -2 -2 1
2286 3 16.8871909508368 17.97395835008003 7.828566867112066 -3 0 0
2212 1 20.61247989239077 18.657975809260027 8.326286539133621 -2 0 0
1795 3 2.745445443492264 19.725723581454442 8.30554453242853 1 0 1
1242 1 2.1854787940039886 20.40992099873554 4.15539340523654 -1 0 2
1857 2 0.5120301407956678 20.560879300649177 5.191387834716737 2 -2 0
125 1 21.55100099641317 21.195109365003997 3.835767680815426 0 -1 0
797 3 3.8910686432988757 21.246033695364336 4.698972445008356 0 1 -1
1198 3 3.039076373226945 18.438779827182437 4.162720178688125 0 0 0
1973 2 5.1020889744846345 20.011814282758195 7.77910201066693 1 -2 0
1640 1 6.849083307486864 19.549047011575098 6.974520855282922 1 1 2
1787 3 5.860452108394019 17.075037247031922 6.897028613363832 0 1 0
910 1 10.06719039308409 20.12776799453496 3.905610079974963 -2 -1 0
1597 3 7.530494556087557 20.483519789838674 4.8514003523534095 -1 1 0
1832 1 13.389042354648678 19.355557932271502 2.4745084414126963 0 0 2
393 3 12.127961315848873 21.616918863370433 3.229424558181964 -2 0 0
905 1 12.715542566777234 20.937644199253818 6.906871279248282 0 0 0
1592 3 13.809515478568542 22.823055937985657 6.09977061213619 0 0 0
494 3 12.09427990606082 18.7557329218989 7.410178037515978 0 0 0
1702 1 16.183525166202447 19.50793545469029 4.214089158666168 0 0 1
1228 1 15.400541435554793 21.28693063292022 6.371798934131737 1 0 1
281 3 17.29999692481286 21.178841733752762 5.166856369679743 0 0 -1
2269 2 19.572935721744994 19.99612914782957 4.856384910992827 -1 1 1
1310 1 18.64481599505825 20.103577544818766 6.271944992119867 0 0 0
1113 1 2.1016782494605946 23.62511676087924 4.56715389355833 -1 0 1
1073 2 4.136186059166119 23.91385389536544 2.690856180466337 -1 0 0
1336 1 0.38414085889249244 25.719869213509988 4.031277513205233 1 -1 0
2164 2 2.133882051694276 25.427539336167683 4.382308951880608 3 -1 1
1587 3 2.203776090082253 22.276473642819912 6.3664061371811895 -3 -1 1
2394 3 5.291474085287517 25.81381608801046 3.574856176162539 1 0 1
2113 1 4.815546155592124 23.763437047376936 4.283490947395528 0 1 0
1769 2 6.358692074546637 24.024403736590862 5.470368570048239 -1 -2 0
219 1 8.163136671015632 22.89544743689747 4.426757855329164 -1 0 0
196 3 4.123584474710474 25.10670366471222 6.738344017387485 3 -1 0
20 1 11.385914052795938 23.035051674586757 5.3156777093128955 1 0 0
2079 3 9.628337857925148 24.50995740752916 6.346535253160177 0 1 1
1717 1 7.72107268515072 23.3435801186885 6.8236856745415695 1 1 1
961 2 12.100438248270141 24.57683531595795 4.336627581275734 1 0 0
462 2 15.298820339085626 24.206230084506945 3.7837699847643944 -2 1 -1
1901 1 13.561558746345625 22.99256062932157 3.768025296210144 1 -1 0
236 1 12.617415805347639 26.471004969792446 4.292903021639649 1 0 1
1575 2 12.990420422976472 24.79608215927942 8.209810274247511 -1 0 -1
31 1 16.600063636428484 23.06748047407637 3.5662902464648685 0 -1 0
1466 2 18.401445444692577 24.342964508930773 4.677917150192456 -1 0 0
1438 1 18.432428420910355 26.020347895351243 4.67585278700099 -2 0 1
2125 1 15.21289918494307 24.627126682868834 5.421190385100211 2 -1 1
918 1 18.267844383332314 23.71290602435126 6.330499279559865 0 0 1
1688 3 20.251656596529518 25.761355595672356 2.823796697817777 -3 0 0
2 1 0.8167540512017301 29.010204665003183 4.559395708188899 -2 0 0
245 1 1.8845824120035575 25.981010433332052 6.458772800963225 -1 -2 -1
1595 3 0.8915717265686335 28.771103532193408 2.382458300297152 -1 -1 1
199 3 2.8969297524129773 28.466325744216096 4.356567256496252 -1 0 0
406 1 5.080220778080896 28.15172666298363 3.6939945639329466 -2 0 0
2060 2 6.81031755660185 28.37498455094692 2.840578265532465 4 -1 2
3 1 6.8869759300856535 29.300412381430085 7.015232664502395 -1 1 0
1040 1 10.255925571011778 26.29571144647573 4.790376908667545 -1 2 1
48 1 8.18958963335428 28.515602715971234 4.045535077235368 -1 -1 0
2275 2 10.68500064814457 26.66241096096981 3.0991644390650026 -1 -1 0
877 3 10.977876006067136 29.84098354076801 4.15793299864823 0 -1 1
1426 1 14.630222961237218 29.161796572688313 5.78289536939293 0 -1 1
348 1 11.040939746019474 28.53732852340834 6.1439733547694155 -2 -1 0
367 2 11.807798890124177 26.80946854816167 5.633937481643604 -1 0 0
1819 1 15.193976330583041 25.693969327061605 2.934167340459613 0 -1 1
235 1 16.296571976085364 28.423817907875463 3.496120533415808 1 2 -1
2086 3 14.742319140468949 26.894770721231694 5.043211091852968 -2 1 1
565 2 16.454633619388158 28.903517306286524 5.468668105034808 -1 0 0
838 1 19.767019755255653 29.32305943399521 3.7947400101499533 -1 -1 0
2057 2 21.263966493739527 29.471297130854857 5.080919629652507 0 -2 0
2382 3 1.4733457289252756 31.40667210067997 4.6748507125604615 -1 2 1
1019 1 3.235231965103295 31.764978998741626 7.016579503948933 2 1 1
2074 2 4.183806120204317 32.131743321217556 5.3096495704024775 3 0 1
440 1 5.135381544948337 0.5998677868607004 6.62168229771551 -1 0 -1
409 1 5.591309699159728 31.132399850962518 5.0407464228557295 -1 -1 -1
1097 3 4.853056402751302 30.538624157368044 7.424718518093696 0 -1 1
2388 3 10.92114766295248 31.929654523486853 6.6531140876463075 -1 -1 1
2284 3 7.60762939445463 30.52017799972042 4.0990355817379704 0 -1 0
1412 1 8.77042792887587 31.485501909795364 6.100773373333819 -2 0 0
1690 3 12.947187049796643 29.71544571639656 6.735525966717489 0 -2 1
1034 1 12.324150197964011 31.199134837786588 5.193570737680443 0 1 0
1421 1 14.257332867923855 32.85645586896219 3.9320018701221717 -2 -1 1
1528 1 16.970063630112932 32.43725321848198 4.809431579592562 1 -2 0
2037 1 18.201861337438267 29.807207909438958 6.375915429061881 0 -1 1
2278 3 15.146596183936474 30.711726948870492 4.372874876846107 -1 0 2
1489 3 17.808818927718 32.66916393349188 7.175476310588668 2 0 -1
1082 3 19.457488666047784 31.440298704192777 4.113337996176575 -1 -1 0
1990 3 21.621971059576925 0.18025953742727532 6.007264720311228 0 1 -1
1840 1 21.29888498921229 31.353634941746762 5.663123848008591 -2 -2 1
748 1 1.0480379366827461 1.0786133551038053 6.950139584662197 1 0 0
1527 1 2.9947567310876626 2.9220219007824766 8.344719251325841 2 1 0
1593 3 1.6453131772140543 2.814788147905054 13.01878333055265 -2 0 1
1884 3 5.645826651147058 1.381693891502255 8.823027817250734 0 -1 0
1638 1 5.611486491834689 3.5689947336212766 8.927788124734397 0 1 1
1905 1 7.79234829748372 1.0092601945275206 8.08258991011043 0 -1 0
202 1 10.456987224328273 2.6618833281983383 9.130996462610403 -1 1 -1
2368 2 9.659432847614667 1.3236978822623686 7.841953134941832 1 1 0
912 1 10.377167244529877 33.03727270253485 8.566035585182332 0 -1 0
580 3 11.04031966861421 0.8526456024788495 10.401714335208226 -3 1 0
541 1 12.921515295993249 0.12476478512328852 10.306102288183242 -1 0 -2
1457 2 14.384750068238407 0.21053030570430073 11.648748806250211 0 -2 -1
1680 3 12.334877384920052 2.198556272239208 7.719394270213458 -1 -1 0
340 1 17.505349781339596 1.313078687393941 6.54773979629723 1 2 0
1077 3 16.14939234420478 0.607744173090944 8.972080891994741 -1 1 1
843 1 14.801141999612058 1.8021971848795417 8.050857365463214 0 1 0
820 1 18.181170496986663 0.904201267751359 9.497869327954268 0 -2 0
95 3 18.17876244930645 32.531468205888125 11.011356297890659 0 0 -1
928 1 20.71060852823391 2.2069338719128337 9.216017094659268 1 -2 -1
880 3 22.13052831883631 0.9945671109736908 8.866690093582607 0 0 0
1072 2 19.43599530338884 1.2235982571907205 8.43983868888181 0 -1 0
526 1 4.257876159009986 5.395506318813218 8.255803834654245 2 0 0
372 2 0.6473123693417804 6.078582050821161 11.083663232381577 1 0 0
1805 1 2.474063060812848 5.004863303736235 10.272113643484303 1 1 1
2052 2 3.8283098637650994 4.109280820612919 9.582561512767573 1 1 1
784 3 1.2244507349925293 3.6190626487756847 9.518681315197822 0 0 1
809 1 21.622697805209405 6.307985728609261 9.409735989991756 -3 -1 0
1992 3 8.00478513415032 2.8252311923176485 9.214626907183215 -1 1 1
1570 2 6.46649923815807 5.109540572764545 8.071955648982856 2 1 0
349 1 8.475743808931385 4.498522193638385 8.241144708083214 2 0 -1
2232 1 6.339170297319177 7.316542942700444 8.694777412627616 1 2 0