LAMMPS (29 Sep 2021 - Update 2)
OMP_NUM_THREADS environment is not set. Defaulting to 1 thread. (src/comm.cpp:98)
  using 1 OpenMP thread(s) per MPI task
# lmp -in therm.lammps
# Muller-Plathe method via fix thermal_conductivity

# conda activate nequip_cuda10.1
# export CUDA_VISIBLE_DEVICES=2
#   lmp -in run_therm_1200
# nohup lmp -in run_therm_1200 > therm_1200_job.out #job =8154
# 1) Initialization
units metal
dimension 3
newton off on
atom_style atomic
boundary p p p



# 2) System definition
read_data	FLi_1300_100_startpoint.lammps
Reading data file ...
  orthogonal box = (0.0000000 0.0000000 0.0000000) to (9.0565509 9.0565509 9.0565509)
  1 by 1 by 1 MPI processor grid
WARNING: Atom style in data file differs from currently defined atom style (src/read_data.cpp:516)
  reading atoms ...
  100 atoms
  read_data CPU = 0.001 seconds
change_box all x final 0 10.552971138514103 y final 0 10.552971138514103 z final 0 10.552971138514103 remap
Changing box ...
  orthogonal box = (0.0000000 0.0000000 0.0000000) to (10.552971 9.0565509 9.0565509)
  orthogonal box = (0.0000000 0.0000000 0.0000000) to (10.552971 10.552971 9.0565509)
  orthogonal box = (0.0000000 0.0000000 0.0000000) to (10.552971 10.552971 10.552971)


# 3) Simulation settings
pair_style	nequip
pair_coeff	* * FLiNa_f_pyt10.2 F Li Na #Li F Na

# 4) NPT:
replicate 2 3 4
Replicating atoms ...
  orthogonal box = (0.0000000 0.0000000 0.0000000) to (21.105942 31.658913 42.211885)
  1 by 1 by 1 MPI processor grid
  2400 atoms
  replicate CPU = 0.001 seconds

# thermo 1
# minimize 1.00e-9 1.0e-9 1000000 10000000
# run 100


timestep .001 # fetmoseconds
variable Tsim equal 1200 # Kelvin
velocity all create ${Tsim} 12335
velocity all create 1200 12335

#-------------------------------------------
# 1st equilibration run
fix 1 all nvt temp ${Tsim} ${Tsim} $(100.0*dt)
fix 1 all nvt temp 1200 ${Tsim} $(100.0*dt)
fix 1 all nvt temp 1200 1200 $(100.0*dt)
fix 1 all nvt temp 1200 1200 0.10000000000000000555
thermo          100
run 50000
Neighbor list info ...
  update every 1 steps, delay 10 steps, check yes
  max neighbors/atom: 2000, page size: 100000
  master list distance cutoff = 7
  ghost atom cutoff = 7
  binsize = 3.5, bins = 7 10 13
  1 neighbor lists, perpetual/occasional/extra = 1 0 0
  (1) pair nequip, perpetual
      attributes: full, newton off
      pair build: full/bin/atomonly
      stencil: full/bin/3d
      bin: standard
Per MPI rank memory allocation (min/avg/max) = 3.996 | 3.996 | 3.996 Mbytes
Step Temp E_pair E_mol TotEng Press 
       0         1200   -11019.938            0   -10647.824    14091.582 
     100    1349.2794   -11092.578            0   -10674.173    15844.567 
     200    1357.0229   -11135.355            0   -10714.549    15935.499 
     300    1249.2873   -11141.641            0   -10754.243    14670.361 
     400    1219.8385   -11164.195            0   -10785.929    14324.545 
     500     1170.983   -11170.976            0    -10807.86    13750.835 
     600    1213.1879   -11187.774            0   -10811.571    14246.446 
     700    1209.7422   -11179.233            0   -10804.098    14205.984 
     800    1233.7497   -11178.774            0   -10796.195    14487.903 
     900     1220.276   -11176.218            0   -10797.816    14329.682 
    1000    1202.0441   -11179.046            0   -10806.298    14115.585 
    1100    1189.1987   -11185.102            0   -10816.337    13964.742 
    1200    1205.7299    -11191.78            0   -10817.889    14158.868 
    1300    1193.4782   -11182.023            0   -10811.932    14014.996 
    1400    1192.9203    -11174.95            0   -10805.031    14008.444 
    1500    1196.4859   -11176.027            0   -10805.003    14050.315 
    1600    1194.0382   -11181.185            0   -10810.919    14021.572 
    1700    1186.4259    -11181.71            0   -10813.805    13932.182 
    1800    1206.8011   -11175.451            0   -10801.228    14171.447 
    1900    1190.4788   -11160.951            0    -10791.79    13979.774 
    2000     1202.015   -11163.235            0   -10790.496    14115.244 
    2100    1184.7481   -11167.147            0   -10799.763    13912.479 
    2200    1202.8815   -11183.587            0   -10810.579    14125.419 
    2300    1195.5911   -11181.249            0   -10810.502    14039.808 
    2400    1182.8968   -11175.642            0   -10808.831    13890.739 
    2500    1219.1639   -11176.534            0   -10798.477    14316.623 
    2600    1216.1503   -11167.104            0   -10789.981    14281.234 
    2700    1220.1363   -11165.804            0   -10787.445    14328.042 
    2800    1209.9449   -11176.677            0   -10801.479    14208.365 
    2900    1176.9256   -11177.963            0   -10813.004    13820.619 
    3000    1199.8859   -11183.135            0   -10811.056    14090.242 
    3100    1229.4995   -11184.083            0   -10802.821    14437.994 
    3200    1213.3268   -11173.082            0   -10796.835    14248.078 
    3300    1206.6081   -11169.384            0   -10795.221    14169.181 
    3400    1207.2894   -11183.829            0   -10809.455     14177.18 
    3500    1174.2048   -11181.708            0   -10817.593    13788.668 
    3600    1165.4087   -11172.783            0   -10811.396    13685.376 
    3700    1212.9581   -11174.652            0    -10798.52    14243.748 
    3800    1226.4374    -11176.01            0   -10795.698    14402.036 
    3900    1202.5836   -11174.217            0   -10801.302    14121.921 
    4000    1184.7481   -11179.173            0   -10811.788    13912.478 
    4100     1197.059   -11183.484            0   -10812.282    14057.045 
    4200    1197.0615   -11177.299            0   -10806.096    14057.074 
    4300     1208.093   -11176.963            0   -10802.339    14186.617 
    4400    1233.4994   -11184.129            0   -10801.627    14484.964 
    4500    1188.2625   -11178.823            0   -10810.349    13953.748 
    4600    1186.2371   -11183.834            0   -10815.988    13929.964 
    4700    1208.3257   -11182.876            0    -10808.18    14189.351 
    4800    1218.3073   -11172.399            0   -10794.608    14306.564 
    4900    1217.5992   -11170.432            0    -10792.86    14298.249 
    5000    1207.6948   -11168.892            0   -10794.391    14181.941 
    5100    1179.6757   -11162.727            0   -10796.915    13852.914 
    5200    1205.8663   -11171.592            0   -10797.659     14160.47 
    5300    1188.2347   -11171.397            0   -10802.932    13953.422 
    5400    1184.9685   -11181.411            0   -10813.958    13915.066 
    5500    1161.4785   -11176.007            0   -10815.838    13639.224 
    5600    1186.7283   -11172.396            0   -10804.398    13935.732 
    5700    1225.0983   -11175.587            0    -10795.69     14386.31 
    5800    1221.8855   -11178.042            0   -10799.141    14348.583 
    5900    1199.9064   -11175.807            0   -10803.722    14090.483 
    6000     1207.535   -11178.334            0   -10803.883    14180.065 
    6100    1184.3443   -11169.697            0   -10802.438    13907.737 
    6200    1211.9974   -11174.222            0   -10798.387    14232.466 
    6300    1224.0473   -11176.197            0   -10796.626    14373.968 
    6400     1175.717   -11164.186            0   -10799.601    13806.427 
    6500    1213.6523   -11173.577            0    -10797.23      14251.9 
    6600    1240.9681   -11178.584            0   -10793.766     14572.67 
    6700    1208.7919   -11176.967            0   -10802.126    14194.824 
    6800    1207.8527    -11185.72            0   -10811.171    14183.795 
    6900    1170.7195   -11180.292            0   -10817.258    13747.741 
    7000    1173.0935   -11184.702            0   -10820.932    13775.619 
    7100    1175.8838   -11177.414            0   -10812.778    13808.386 
    7200    1187.6628   -11168.935            0   -10800.646    13946.706 
    7300    1209.0196   -11169.332            0   -10794.421    14197.498 
    7400    1211.5481   -11170.947            0   -10795.252     14227.19 
    7500    1177.9613    -11176.64            0    -10811.36    13832.781 
    7600    1178.9381   -11180.714            0   -10815.131    13844.252 
    7700    1192.1718   -11176.731            0   -10807.045    13999.655 
    7800    1208.3159   -11172.699            0   -10798.006    14189.235 
    7900    1191.7991   -11167.635            0   -10798.064    13995.278 
    8000    1200.6966    -11176.14            0    -10803.81    14099.762 
    8100    1161.2083   -11170.106            0   -10810.021    13636.052 
    8200    1163.1902   -11179.421            0   -10818.721    13659.325 
    8300    1182.6765   -11184.222            0    -10817.48    13888.152 
    8400    1185.0342   -11170.077            0   -10802.604    13915.838 
    8500    1202.4733   -11169.295            0   -10796.414    14120.626 
    8600    1198.2055    -11171.71            0   -10800.152    14070.508 
    8700    1177.5517   -11168.113            0    -10802.96    13827.972 
    8800    1169.8535   -11170.856            0   -10808.091    13737.571 
    8900     1182.086   -11180.479            0   -10813.919    13881.217 
    9000     1181.163   -11177.345            0   -10811.072    13870.379 
    9100    1239.4768   -11183.228            0   -10798.872    14555.157 
    9200    1214.5809   -11172.592            0   -10795.956    14262.805 
    9300    1183.2559     -11176.5            0   -10809.578    13894.955 
    9400    1183.0905   -11183.904            0   -10817.034    13893.014 
    9500    1181.1912   -11179.667            0   -10813.385     13870.71 
    9600    1175.8716   -11167.769            0   -10803.137    13808.242 
    9700    1218.6634   -11175.454            0   -10797.553    14310.745 
    9800    1208.6772   -11176.155            0    -10801.35    14193.478 
    9900    1227.7321   -11187.678            0   -10806.964    14417.239 
   10000    1205.4255   -11182.735            0   -10808.939    14155.293 
   10100    1189.6967   -11175.136            0   -10806.217     13970.59 
   10200    1195.6576   -11171.825            0   -10801.058    14040.588 
   10300    1232.4115   -11181.462            0   -10799.297     14472.19 
   10400    1173.3257    -11178.09            0   -10814.247    13778.346 
   10500    1157.7495   -11177.868            0   -10818.856    13595.434 
   10600    1200.7359   -11183.134            0   -10810.791    14100.224 
   10700    1208.2806   -11176.104            0   -10801.423     14188.82 
   10800    1199.7176    -11172.24            0   -10800.214    14088.266 
   10900    1213.3848   -11177.061            0   -10800.796    14248.759 
   11000     1233.163    -11186.39            0   -10803.992    14481.014 
   11100    1189.3851   -11175.725            0   -10806.902    13966.931 
   11200    1200.2462   -11176.966            0   -10804.775    14094.473 
   11300    1214.3234   -11173.554            0   -10796.998    14259.781 
   11400    1229.7693   -11171.526            0   -10790.181    14441.163 
   11500    1226.6283   -11171.849            0   -10791.477    14404.277 
   11600    1204.3539   -11179.686            0   -10806.221     14142.71 
   11700    1162.8251   -11173.508            0   -10812.921    13655.037 
   11800    1211.5625   -11184.995            0   -10809.296     14227.36 
   11900     1188.287   -11168.435            0   -10799.953    13954.036 
   12000    1255.6512   -11178.463            0   -10789.092    14745.093 
   12100    1197.0293   -11175.039            0   -10803.846    14056.696 
   12200    1175.1087   -11180.682            0   -10816.286    13799.284 
   12300    1176.4967   -11176.469            0   -10811.643    13815.583 
   12400    1213.5738   -11176.879            0   -10800.556    14250.978 
   12500    1200.8459   -11166.814            0   -10794.438    14101.515 
   12600      1189.58   -11161.329            0   -10792.446    13969.219 
   12700    1191.9556   -11169.391            0   -10799.771    13997.116 
   12800    1168.6858   -11174.862            0   -10812.459     13723.86 
   12900    1167.1608   -11171.072            0   -10809.141    13705.951 
   13000    1195.4912   -11167.878            0   -10797.162    14038.635 
   13100    1211.6237   -11166.725            0   -10791.006    14228.078 
   13200    1235.7255   -11177.259            0   -10794.066    14511.106 
   13300    1205.3955   -11175.367            0    -10801.58    14154.941 
   13400    1195.8964   -11180.914            0   -10810.072    14043.393 
   13500    1189.6442   -11176.839            0   -10807.936    13969.973 
   13600    1194.5462   -11174.624            0   -10804.201    14027.538 
   13700    1219.2566   -11179.171            0   -10801.085    14317.711 
   13800    1200.4376    -11172.85            0     -10800.6     14096.72 
   13900     1211.487   -11181.257            0   -10805.581    14226.473 
   14000    1212.3594   -11186.141            0   -10810.194    14236.718 
   14100    1207.2353   -11186.838            0    -10812.48    14176.546 
   14200    1173.0289   -11175.626            0   -10811.875     13774.86 
   14300    1222.6918    -11175.95            0   -10796.799    14358.051 
   14400    1213.9434   -11171.366            0   -10794.928    14255.319 
   14500    1211.1341   -11176.422            0   -10800.855    14222.329 
   14600    1166.2271   -11171.928            0   -10810.286    13694.987 
   14700    1201.5935   -11182.114            0   -10809.506    14110.294 
   14800    1215.7052   -11165.981            0   -10788.997    14276.008 
   14900    1237.6364    -11169.59            0   -10785.805    14533.545 
   15000    1232.4811   -11179.411            0   -10797.225    14473.006 
   15100    1202.1378    -11179.12            0   -10806.343    14116.686 
   15200     1173.057   -11167.428            0   -10803.669    13775.191 
   15300    1202.4665   -11170.736            0   -10797.857    14120.545 
   15400     1194.623   -11173.864            0   -10803.418     14028.44 
   15500    1160.4134   -11178.068            0    -10818.23    13626.717 
   15600    1180.4988   -11184.771            0   -10818.704    13862.579 
   15700    1168.3613   -11171.645            0   -10809.341    13720.049 
   15800    1198.1588   -11170.962            0   -10799.419    14069.961 
   15900    1215.5076   -11175.961            0   -10799.038    14273.687 
   16000    1238.0154    -11183.94            0   -10800.038    14537.996 
   16100    1209.0247   -11184.811            0   -10809.898    14197.559 
   16200    1205.3654   -11192.552            0   -10818.774    14154.587 
   16300    1191.5879   -11182.868            0   -10813.363    13992.798 
   16400    1219.8549   -11170.786            0   -10792.515    14324.738 
   16500    1211.5047   -11169.735            0   -10794.054    14226.681 
   16600    1200.4927   -11177.107            0   -10804.841    14097.367 
   16700    1158.1515   -11167.969            0   -10808.832    13600.156 
   16800    1209.9897   -11176.621            0   -10801.409    14208.891 
   16900    1240.0638   -11175.885            0   -10791.347     14562.05 
   17000    1209.1248   -11168.573            0    -10793.63    14198.734 
   17100    1196.5872   -11181.813            0   -10810.758    14051.505 
   17200    1178.7858   -11180.136            0     -10814.6    13842.463 
   17300    1215.8831   -11182.184            0   -10805.144    14278.096 
   17400    1203.4137   -11171.273            0   -10798.101    14131.668 
   17500    1185.5696   -11163.811            0   -10796.171    13922.126 
   17600    1173.0479   -11168.591            0   -10804.834    13775.083 
   17700    1143.1549   -11170.555            0   -10816.068     13424.05 
   17800    1211.4348    -11185.59            0    -10809.93     14225.86 
   17900    1209.1714   -11173.892            0   -10798.933    14199.281 
   18000    1189.1018   -11167.146            0   -10798.411    13963.604 
   18100    1193.1655   -11173.133            0   -10803.138    14011.324 
   18200    1188.5075   -11176.061            0    -10807.51    13956.625 
   18300    1187.3118   -11173.938            0   -10805.759    13942.585 
   18400    1194.9954   -11173.202            0    -10802.64    14032.812 
   18500    1206.6749   -11175.841            0   -10801.657    14169.964 
   18600    1230.7586   -11179.982            0    -10798.33    14452.779 
   18700    1223.4791   -11175.615            0    -10796.22    14367.296 
   18800    1177.9956   -11171.868            0   -10806.578    13833.184 
   18900    1162.3852    -11176.12            0    -10815.67    13649.871 
   19000    1192.2194    -11187.68            0   -10817.978    14000.214 
   19100    1189.1763   -11175.038            0    -10806.28    13964.478 
   19200    1207.1683   -11168.486            0   -10794.149    14175.758 
   19300    1221.9771   -11176.757            0   -10797.828    14349.658 
   19400    1190.5913   -11178.474            0   -10809.277    13981.095 
   19500    1190.3379   -11184.631            0   -10815.513    13978.119 
   19600    1190.2727   -11184.082            0   -10814.984    13977.354 
   19700    1181.0453   -11175.399            0   -10809.163    13868.997 
   19800    1201.6375   -11177.512            0    -10804.89     14110.81 
   19900    1201.4211   -11175.504            0   -10802.949     14108.27 
   20000    1199.9693   -11178.184            0   -10806.079    14091.221 
   20100    1188.5615   -11179.246            0   -10810.679    13957.259 
   20200    1177.6383   -11183.482            0   -10818.303    13828.988 
   20300    1190.6115   -11187.409            0   -10818.206    13981.332 
   20400     1190.096   -11174.899            0   -10805.856    13975.279 
   20500    1201.2493   -11168.197            0   -10795.696    14106.252 
   20600    1215.1543   -11173.552            0   -10796.738    14269.538 
   20700    1185.4923   -11172.294            0   -10804.679    13921.218 
   20800    1181.4797   -11176.116            0   -10809.745    13874.098 
   20900    1217.9706   -11170.815            0   -10793.129    14302.611 
   21000    1226.4198   -11163.921            0   -10783.614    14401.829 
   21100    1223.4018   -11168.992            0   -10789.621    14366.388 
   21200    1210.9832   -11177.796            0   -10802.276    14220.557 
   21300    1210.1183   -11182.465            0   -10807.213    14210.401 
   21400    1220.4397   -11185.343            0    -10806.89    14331.605 
   21500    1190.5871   -11179.039            0   -10809.844    13981.046 
   21600     1183.314   -11181.446            0   -10814.506    13895.638 
   21700    1190.8594   -11181.886            0   -10812.606    13984.243 
   21800    1202.7809    -11176.77            0   -10803.793    14124.238 
   21900    1231.5872   -11176.072            0   -10794.163    14462.509 
   22000    1213.1795   -11172.276            0   -10796.075    14246.349 
   22100    1184.7443   -11182.001            0   -10814.618    13912.435 
   22200    1181.6914   -11184.993            0   -10818.556    13876.584 
   22300    1193.6485   -11179.578            0   -10809.434    14016.996 
   22400    1183.3015   -11165.599            0   -10798.663    13895.491 
   22500    1204.7235   -11169.153            0   -10795.574     14147.05 
   22600    1213.1371   -11178.861            0   -10802.673     14245.85 
   22700    1193.1506   -11184.369            0   -10814.379    14011.149 
   22800    1192.9876   -11184.561            0   -10814.621    14009.235 
   22900    1213.3122   -11186.918            0   -10810.676    14247.906 
   23000    1166.1423   -11168.069            0   -10806.454    13693.991 
   23100    1210.6734   -11165.736            0   -10790.312    14216.919 
   23200    1221.9099   -11165.822            0   -10786.914    14348.869 
   23300    1242.9838   -11182.396            0   -10796.952     14596.34 
   23400     1205.802   -11179.938            0   -10806.024    14159.714 
   23500    1197.1235   -11180.878            0   -10809.656    14057.803 
   23600    1168.5595   -11168.507            0   -10806.142    13722.377 
   23700    1210.4248   -11165.204            0   -10789.857    14213.999 
   23800    1228.1005   -11167.931            0   -10787.103    14421.565 
   23900    1184.6775   -11164.854            0   -10797.492    13911.649 
   24000    1196.0128    -11175.01            0   -10804.132     14044.76 
   24100    1178.4291   -11173.996            0   -10808.571    13838.275 
   24200    1166.9941   -11173.312            0   -10811.433    13703.993 
   24300    1206.3185   -11183.146            0   -10809.073    14165.779 
   24400    1200.6055   -11171.351            0   -10799.049    14098.692 
   24500    1209.7804    -11171.14            0   -10795.993    14206.432 
   24600    1187.2987   -11171.342            0   -10803.166     13942.43 
   24700    1184.9746    -11177.75            0   -10810.295    13915.138 
   24800    1189.0837   -11184.416            0   -10815.687    13963.392 
   24900    1159.8474   -11177.355            0   -10817.692     13620.07 
   25000    1190.1617   -11174.609            0   -10805.546    13976.051 
   25100    1204.0442   -11171.825            0   -10798.457    14139.073 
   25200      1223.13   -11175.304            0   -10796.017    14363.197 
   25300    1198.1779   -11169.079            0    -10797.53    14070.185 
   25400    1163.9148   -11171.682            0   -10810.757    13667.833 
   25500    1211.0683   -11186.313            0   -10810.767    14221.557 
   25600    1208.8889   -11173.014            0   -10798.143    14195.963 
   25700    1199.4152   -11166.272            0    -10794.34    14084.715 
   25800    1197.9308    -11170.33            0   -10798.858    14067.283 
   25900    1221.1227    -11181.54            0   -10802.876    14339.625 
   26000    1205.7452   -11185.432            0   -10811.536    14159.048 
   26100    1161.0404   -11187.191            0   -10827.158     13634.08 
   26200    1148.7743    -11186.22            0    -10829.99    13490.038 
   26300    1191.6066   -11175.848            0   -10806.336    13993.018 
   26400    1211.6279   -11179.444            0   -10803.724    14228.127 
   26500    1206.2446   -11179.259            0   -10805.208    14164.912 
   26600    1191.6553   -11176.066            0    -10806.54     13993.59 
   26700    1230.5274   -11189.565            0   -10807.985    14450.064 
   26800     1169.891   -11176.609            0   -10813.832    13738.012 
   26900     1179.251   -11179.665            0   -10813.985    13847.926 
   27000      1192.86   -11167.762            0   -10797.862    14007.737 
   27100    1211.2005   -11166.307            0   -10790.719    14223.108 
   27200    1211.7214   -11173.038            0   -10797.289    14229.226 
   27300    1155.9641   -11167.338            0   -10808.879    13574.469 
   27400    1179.2672   -11175.983            0   -10810.298    13848.117 
   27500     1178.307   -11172.867            0    -10807.48    13836.841 
   27600    1204.4651   -11172.721            0   -10799.222    14144.015 
   27700    1207.3221   -11172.282            0   -10797.898    14177.565 
   27800     1197.324   -11174.144            0   -10802.859    14060.157 
   27900    1198.4254   -11179.429            0   -10807.803    14073.091 
   28000    1189.1962   -11182.503            0   -10813.739    13964.713 
   28100    1175.7874   -11176.392            0   -10811.786    13807.253 
   28200    1219.0528   -11174.859            0   -10796.837    14315.318 
   28300    1209.1325   -11173.886            0    -10798.94    14198.824 
   28400    1205.4314   -11181.894            0   -10808.095    14155.363 
   28500    1180.2273   -11178.655            0   -10812.673    13859.392 
   28600    1181.6801   -11175.272            0   -10808.839    13876.451 
   28700    1187.3939   -11175.709            0   -10807.504    13943.549 
   28800    1182.4957   -11170.329            0   -10803.643    13886.028 
   28900    1219.0488   -11175.152            0   -10797.131    14315.271 
   29000    1245.5317   -11174.952            0   -10788.719    14626.259 
   29100    1246.7321   -11172.703            0   -10786.098    14640.356 
   29200    1202.6305   -11174.781            0   -10801.851    14122.471 
   29300    1197.5897   -11179.283            0   -10807.917    14063.278 
   29400    1214.0236   -11183.296            0   -10806.833    14256.261 
   29500    1169.2927   -11161.866            0   -10799.274    13730.987 
   29600    1244.7491    -11172.41            0    -10786.42    14617.069 
   29700    1223.9973   -11173.979            0   -10794.424    14373.381 
   29800    1197.8514    -11176.68            0   -10805.232     14066.35 
   29900    1211.8027    -11180.54            0   -10804.766    14230.181 
   30000     1202.982   -11175.089            0    -10802.05    14126.599 
   30100    1210.6187   -11168.319            0   -10792.912    14216.276 
   30200    1220.7544    -11167.95            0     -10789.4      14335.3 
   30300    1205.9957    -11179.51            0   -10805.536    14161.989 
   30400    1184.0085   -11179.053            0   -10811.898    13903.794 
   30500    1200.0717   -11180.607            0   -10808.471    14092.424 
   30600    1212.9776    -11178.37            0   -10802.232    14243.977 
   30700    1231.8886   -11174.056            0   -10792.053    14466.049 
   30800      1187.71   -11161.103            0   -10792.799    13947.261 
   30900    1176.6713   -11173.789            0   -10808.909    13817.633 
   31000    1167.9805   -11177.843            0   -10815.658    13715.577 
   31100    1188.8576   -11179.004            0   -10810.345    13960.737 
   31200    1208.0062   -11171.888            0   -10797.291    14185.599 
   31300    1196.6493   -11164.594            0   -10793.519    14052.235 
   31400    1207.2938   -11170.158            0   -10795.782    14177.233 
   31500     1213.402   -11176.736            0   -10800.466    14248.961 
   31600    1191.7781   -11176.414            0    -10806.85    13995.031 
   31700    1152.5659   -11182.824            0   -10825.419    13534.564 
   31800    1184.7505   -11191.431            0   -10824.045    13912.507 
   31900    1191.8122    -11182.64            0   -10813.065    13995.432 
   32000    1200.2361    -11179.41            0   -10807.223    14094.355 
   32100    1189.7175   -11172.143            0   -10803.217    13970.834 
   32200    1197.5507   -11172.204            0    -10800.85    14062.819 
   32300      1205.39   -11170.742            0   -10796.957    14154.877 
   32400    1222.3616     -11175.2            0   -10796.152    14354.173 
   32500    1206.5016   -11181.095            0   -10806.965     14167.93 
   32600    1198.6172   -11187.005            0    -10815.32    14075.343 
   32700    1200.9149    -11187.77            0   -10815.372    14102.326 
   32800    1206.0821   -11176.577            0   -10802.577    14163.004 
   32900    1207.1744   -11166.508            0   -10792.169     14175.83 
   33000    1207.0611   -11172.611            0   -10798.308      14174.5 
   33100    1203.0294   -11182.398            0   -10809.345    14127.156 
   33200    1195.8591   -11185.391            0   -10814.561    14042.955 
   33300    1175.5398   -11179.892            0   -10815.362    13804.346 
   33400    1226.8619   -11185.833            0   -10805.389    14407.021 
   33500    1213.8536   -11169.118            0   -10792.708    14254.264 
   33600    1193.1058   -11164.768            0   -10794.791    14010.623 
   33700    1203.6558   -11173.225            0   -10799.977    14134.512 
   33800    1210.1589   -11182.403            0   -10807.139    14210.877 
   33900    1182.4733   -11179.606            0   -10812.927    13885.766 
   34000    1181.9101   -11178.671            0   -10812.166    13879.152 
   34100    1215.4497   -11176.192            0   -10799.287    14273.007 
   34200    1230.9842   -11173.549            0   -10791.827    14455.428 
   34300    1216.9149   -11177.288            0   -10799.929    14290.213 
   34400    1221.8659   -11189.139            0   -10810.244    14348.353 
   34500    1164.9141     -11173.8            0   -10812.566    13679.568 
   34600    1193.4223   -11175.396            0   -10805.322     14014.34 
   34700    1212.9085   -11176.288            0   -10800.171    14243.166 
   34800    1209.5329   -11172.138            0   -10797.067    14203.526 
   34900    1198.4216   -11176.304            0   -10804.679    14073.046 
   35000    1199.9884   -11184.924            0   -10812.813    14091.446 
   35100    1178.1327   -11179.824            0   -10814.491    13834.794 
   35200    1200.9303   -11173.271            0   -10800.869    14102.506 
   35300    1218.5341   -11169.044            0   -10791.183    14309.227 
   35400     1227.005    -11175.27            0   -10794.781      14408.7 
   35500    1220.4983   -11182.546            0   -10804.075    14332.293 
   35600    1182.4183   -11178.676            0   -10812.014     13885.12 
   35700    1194.7262   -11181.644            0   -10811.165    14029.651 
   35800    1183.4024   -11173.148            0   -10806.181    13896.676 
   35900     1234.587   -11172.115            0   -10789.276    14497.736 
   36000    1208.8124   -11163.542            0   -10788.695    14195.066 
   36100    1195.9856   -11168.157            0   -10797.288     14044.44 
   36200     1180.127   -11173.622            0    -10807.67    13858.213 
   36300    1205.1896   -11184.635            0   -10810.911    14152.523 
   36400    1175.5028   -11177.974            0   -10813.456    13803.912 
   36500    1218.8727   -11186.959            0   -10808.993    14313.203 
   36600    1234.0463   -11183.441            0    -10800.77    14491.386 
   36700    1192.9524   -11173.174            0   -10803.245    14008.821 
   36800    1177.2762     -11176.4            0   -10811.333    13824.736 
   36900    1190.9794   -11186.921            0   -10817.604    13985.653 
   37000    1220.1276   -11186.787            0   -10808.432     14327.94 
   37100    1215.9745    -11173.94            0   -10796.873     14279.17 
   37200    1200.7152   -11168.616            0    -10796.28     14099.98 
   37300       1206.5   -11177.561            0   -10803.431    14167.911 
   37400    1177.4997   -11185.499            0   -10820.362    13827.361 
   37500    1169.0633   -11181.329            0   -10818.808    13728.292 
   37600    1189.7753   -11178.479            0   -10809.535    13971.513 
   37700    1176.9978   -11166.146            0   -10801.164    13821.467 
   37800    1219.6313   -11175.526            0   -10797.325    14322.112 
   37900    1182.0824    -11168.59            0   -10802.032    13881.175 
   38000    1180.2353   -11180.096            0   -10814.111    13859.485 
   38100    1169.8704   -11185.493            0   -10822.722     13737.77 
   38200    1214.1276   -11187.731            0   -10811.236    14257.482 
   38300    1187.8522   -11171.039            0   -10802.692     13948.93 
   38400    1193.2157   -11173.299            0   -10803.288    14011.914 
   38500    1176.0321   -11173.015            0   -10808.333    13810.127 
   38600    1207.8232   -11184.117            0   -10809.577    14183.449 
   38700    1205.5369    -11172.92            0   -10799.089    14156.601 
   38800    1234.7403   -11173.925            0   -10791.038    14499.537 
   38900    1198.5488   -11172.041            0   -10800.377     14074.54 
   39000      1193.77   -11180.636            0   -10810.454    14018.423 
   39100    1176.9875   -11175.518            0    -10810.54    13821.346 
   39200    1188.6174   -11174.761            0   -10806.176    13957.915 
   39300    1183.7193   -11169.496            0   -10802.431    13900.398 
   39400    1209.5252   -11173.273            0   -10798.206    14203.436 
   39500    1203.1096   -11170.625            0   -10797.547    14128.097 
   39600    1202.9257   -11180.507            0   -10807.485    14125.938 
   39700    1191.8829   -11183.877            0    -10814.28    13996.262 
   39800    1167.4246   -11174.829            0   -10812.816    13709.049 
   39900    1201.1349   -11170.773            0   -10798.307    14104.909 
   40000    1218.7323   -11169.653            0    -10791.73    14311.554 
   40100     1198.435   -11167.948            0   -10796.319    14073.204 
   40200     1225.456   -11182.623            0   -10802.615    14390.511 
   40300    1170.8686   -11170.793            0   -10807.712    13749.492 
   40400    1204.2658   -11180.098            0   -10806.661    14141.675 
   40500    1189.0478   -11175.111            0   -10806.393     13962.97 
   40600    1199.4959   -11172.737            0    -10800.78    14085.662 
   40700    1239.0324   -11168.615            0   -10784.397    14549.939 
   40800     1236.449   -11170.389            0   -10786.972    14519.602 
   40900    1219.3482    -11176.29            0   -10798.176    14318.787 
   41000    1205.5069   -11175.714            0   -10801.892    14156.249 
   41100     1187.999   -11176.002            0   -10807.609    13950.653 
   41200    1212.9776   -11192.979            0   -10816.841    14243.978 
   41300    1162.6452   -11184.322            0   -10823.792    13652.925 
   41400    1219.8879   -11189.536            0   -10811.255    14325.125 
   41500    1225.1234   -11180.833            0   -10800.928    14386.605 
   41600    1211.8217   -11177.494            0   -10801.714    14230.403 
   41700    1193.4518   -11178.583            0   -10808.499    14014.686 
   41800    1162.8186   -11176.677            0   -10816.092     13654.96 
   41900     1179.919   -11181.465            0   -10815.578    13855.771 
   42000    1195.2974   -11169.311            0   -10798.655    14036.358 
   42100    1203.2971   -11164.814            0   -10791.678    14130.299 
   42200    1210.8144   -11170.053            0   -10794.585    14218.575 
   42300    1188.9297    -11171.85            0   -10803.168    13961.584 
   42400    1168.0741   -11175.994            0    -10813.78    13716.676 
   42500    1167.3968   -11183.125            0   -10821.121    13708.723 
   42600    1164.3703   -11188.217            0   -10827.151    13673.182 
   42700    1183.4523   -11184.751            0   -10817.768    13897.262 
   42800    1215.1048   -11182.457            0   -10805.659    14268.957 
   42900    1203.0744    -11177.22            0   -10804.152    14127.684 
   43000    1172.7962   -11171.745            0   -10808.067    13772.128 
   43100    1192.0723   -11172.091            0   -10802.435    13998.486 
   43200    1242.1857     -11175.6            0   -10790.404    14586.968 
   43300    1209.5901   -11168.045            0   -10792.957    14204.198 
   43400     1214.756   -11183.861            0   -10807.171    14264.861 
   43500    1195.6533   -11182.175            0   -10811.409    14040.538 
   43600    1202.7934   -11180.056            0   -10807.075    14124.385 
   43700    1229.4355   -11181.424            0   -10800.182    14437.242 
   43800    1215.6253   -11172.413            0   -10795.454    14275.069 
   43900    1226.9607   -11176.209            0   -10795.734    14408.181 
   44000     1211.164   -11183.202            0   -10807.626     14222.68 
   44100    1192.8357   -11184.377            0   -10814.484    14007.451 
   44200    1192.2733   -11183.855            0   -10814.137    14000.848 
   44300    1199.5304    -11173.68            0   -10801.711    14086.067 
   44400    1221.0895   -11170.755            0   -10792.101    14339.235 
   44500    1209.8338   -11173.644            0    -10798.48     14207.06 
   44600    1174.7102   -11171.991            0   -10807.719    13794.604 
   44700     1187.765   -11176.059            0   -10807.739    13947.906 
   44800     1197.796   -11180.979            0   -10809.548      14065.7 
   44900    1194.9452   -11175.117            0   -10804.571    14032.223 
   45000     1239.333   -11171.928            0   -10787.617    14553.468 
   45100    1242.1651   -11172.455            0   -10787.266    14586.726 
   45200    1201.2068   -11170.425            0   -10797.936    14105.753 
   45300    1183.9577   -11172.687            0   -10805.547    13903.197 
   45400    1205.8539   -11177.907            0   -10803.978    14160.324 
   45500    1190.8244   -11172.688            0   -10803.419    13983.833 
   45600    1173.7998   -11168.143            0   -10804.153    13783.913 
   45700    1194.4213   -11167.623            0   -10797.239    14026.072 
   45800    1211.7431   -11163.001            0   -10787.245    14229.481 
   45900    1210.8373    -11167.74            0   -10792.266    14218.844 
   46000    1184.5719   -11172.755            0   -10805.425     13910.41 
   46100    1185.7872   -11177.336            0   -10809.629     13924.68 
   46200     1178.387   -11169.534            0   -10804.122     13837.78 
   46300    1197.2267   -11171.049            0   -10799.795    14059.015 
   46400    1198.5046   -11175.235            0   -10803.585    14074.021 
   46500    1176.9451    -11169.66            0   -10804.695    13820.848 
   46600    1191.7491   -11171.575            0    -10802.02    13994.691 
   46700    1175.5652   -11166.991            0   -10802.454    13804.644 
   46800    1176.4356   -11171.505            0   -10806.698    13814.865 
   46900    1186.7744   -11176.006            0   -10807.993    13936.274 
   47000    1192.9045   -11178.734            0   -10808.821    14008.259 
   47100    1201.8509   -11183.302            0   -10810.614    14113.317 
   47200    1194.2832    -11188.74            0   -10818.399    14024.449 
   47300    1157.0357   -11183.449            0   -10824.658    13587.052 
   47400    1190.2428   -11183.062            0   -10813.974    13977.003 
   47500    1232.3091   -11183.333            0     -10801.2    14470.987 
   47600    1192.0821   -11172.078            0   -10802.419    13998.602 
   47700    1192.9009   -11175.481            0   -10805.569    14008.217 
   47800    1190.1423   -11181.908            0   -10812.851    13975.822 
   47900    1146.5972    -11177.27            0   -10821.715    13464.473 
   48000    1208.8057   -11183.663            0   -10808.818    14194.987 
   48100    1197.8686   -11172.183            0   -10800.729    14066.552 
   48200    1185.1197    -11170.09            0    -10802.59    13916.842 
   48300    1197.7946    -11179.55            0    -10808.12    14065.684 
   48400    1159.4454   -11179.084            0   -10819.546     13615.35 
   48500    1196.8013    -11191.24            0   -10820.118    14054.019 
   48600    1190.1373   -11169.203            0   -10800.147    13975.764 
   48700    1217.8829    -11173.01            0    -10795.35     14301.58 
   48800    1187.3594   -11172.674            0    -10804.48    13943.144 
   48900    1184.2194   -11178.058            0   -10810.837     13906.27 
   49000    1198.3115   -11178.235            0   -10806.645    14071.754 
   49100    1236.9115   -11176.643            0   -10793.082    14525.032 
   49200    1227.6059   -11169.384            0   -10788.709    14415.757 
   49300     1202.835   -11179.725            0   -10806.731    14124.872 
   49400    1200.9442    -11184.74            0   -10812.333     14102.67 
   49500    1199.9495   -11181.111            0   -10809.013    14090.989 
   49600    1222.5451   -11179.461            0   -10800.356    14356.328 
   49700    1245.0094   -11181.013            0   -10794.941    14620.127 
   49800    1196.9924   -11170.028            0   -10798.847    14056.263 
   49900     1163.413   -11172.479            0   -10811.711    13661.941 
   50000    1205.1744   -11185.962            0   -10812.243    14152.345 
Loop time of 11070.7 on 1 procs for 50000 steps with 2400 atoms

Performance: 0.390 ns/day, 61.504 hours/ns, 4.516 timesteps/s
99.0% CPU use with 1 MPI tasks x 1 OpenMP threads

MPI task timing breakdown:
Section |  min time  |  avg time  |  max time  |%varavg| %total
---------------------------------------------------------------
Pair    | 11030      | 11030      | 11030      |   0.0 | 99.63
Neigh   | 33.324     | 33.324     | 33.324     |   0.0 |  0.30
Comm    | 3.2468     | 3.2468     | 3.2468     |   0.0 |  0.03
Output  | 0.017084   | 0.017084   | 0.017084   |   0.0 |  0.00
Modify  | 3.3562     | 3.3562     | 3.3562     |   0.0 |  0.03
Other   |            | 0.9956     |            |       |  0.01

Nlocal:        2400.00 ave        2400 max        2400 min
Histogram: 1 0 0 0 0 0 0 0 0 0
Nghost:        5208.00 ave        5208 max        5208 min
Histogram: 1 0 0 0 0 0 0 0 0 0
Neighs:         0.00000 ave           0 max           0 min
Histogram: 1 0 0 0 0 0 0 0 0 0
FullNghs:      291380.0 ave      291380 max      291380 min
Histogram: 1 0 0 0 0 0 0 0 0 0

Total # of neighbors = 291380
Ave neighs/atom = 121.40833
Neighbor list builds = 2232
Dangerous builds = 0

velocity        all scale ${Tsim}
velocity        all scale 1200
unfix           1

#-----------------------------------------
# 2nd equilibration run
compute         ke all ke/atom
variable        temp atom c_ke/1.5

fix             1 all nve

compute         layers all chunk/atom bin/1d z lower 0.05 units reduced # <--- delta z ?
fix             2 all ave/chunk 10 100 1000 layers v_temp file profile.mp # <--- use every 10 steps, 100 times, repeat every 1000 steps
fix             3 all thermal/conductivity 10 z 20 # <--- perform kintic energy swap every 10 steps, using 20 bins

variable        tdiff equal f_2[11][3]-f_2[1][3]
thermo_style    custom step temp epair etotal f_3 v_tdiff
thermo          1000
#thermo_modify   colname f_3 E_delta colname v_tdiff dTemp_step


run 200000
Per MPI rank memory allocation (min/avg/max) = 4.247 | 4.247 | 4.247 Mbytes
Step Temp E_pair TotEng f_3 v_tdiff 
   50000         1200   -11185.963   -10813.849            0            0 
   51000    1165.2734   -11175.166    -10813.82    46.881399  0.033039411 
   52000     1196.893   -11185.001    -10813.85     89.27656  0.047288104 
   53000    1189.0248   -11182.589   -10813.878    132.00819   0.05801837 
   54000    1178.8017   -11179.417   -10813.876    172.71586  0.055269054 
   55000    1166.2451   -11175.512   -10813.865    213.26529  0.056155605 
   56000    1212.7194   -11189.927   -10813.868    256.88329  0.051728334 
   57000    1202.4862   -11186.781   -10813.896    299.21694  0.055879765 
   58000    1179.5774   -11179.655   -10813.874    342.44845  0.055982397 
   59000    1171.6255   -11177.198   -10813.883     382.5163  0.052681162 
   60000     1194.944   -11184.405   -10813.859    424.63361  0.060498556 
   61000    1192.6718   -11183.726   -10813.884    463.06425   0.06655805 
   62000    1188.8076   -11182.521   -10813.877    505.55879  0.059241675 
   63000    1213.3767   -11190.155   -10813.893    546.15921  0.060285366 
   64000    1171.8758   -11177.274   -10813.881    586.57472  0.059910419 
   65000    1170.4804   -11176.862   -10813.902     627.4044  0.055732361 
   66000    1192.4124   -11183.646   -10813.885    669.90337  0.060362617 
   67000    1184.8343   -11181.318   -10813.907    710.47772  0.055343694 
   68000    1188.0371   -11182.307   -10813.902    752.21055  0.057340074 
   69000    1192.4968   -11183.692   -10813.905    791.22017  0.052721745 
   70000    1194.4769   -11184.308   -10813.906    830.33451  0.054628001 
   71000    1191.0097   -11183.239   -10813.913    871.40927  0.052803306 
   72000    1191.2066   -11183.285   -10813.898    912.72233   0.05504637 
   73000    1178.7151   -11179.426   -10813.912    953.98329  0.056859256 
   74000    1213.7586   -11190.321   -10813.941    994.25622  0.058843896 
   75000    1194.2902   -11184.244   -10813.901    1034.7748  0.061152781 
   76000     1210.956   -11189.439   -10813.928    1075.4522  0.058434011 
   77000    1177.7281   -11179.111   -10813.904    1116.1791  0.058458684 
   78000    1186.4185   -11181.815   -10813.913    1157.2275   0.05917295 
   79000     1202.584   -11186.844   -10813.928    1197.7765  0.055534934 
   80000    1166.7587   -11175.745   -10813.939     1239.699   0.05515039 
   81000    1180.3638   -11179.994   -10813.969    1281.4689  0.047876809 
   82000     1184.348   -11181.201   -10813.941    1322.7018  0.049164718 
   83000    1192.6168   -11183.787   -10813.962    1363.6487  0.056043213 
   84000    1205.0254    -11187.63   -10813.957    1406.7488  0.057961165 
   85000    1166.0942    -11175.54    -10813.94    1448.7131  0.056179294 
   86000    1184.0228   -11181.123   -10813.963    1489.1062  0.060110667 
   87000    1190.9571   -11183.278   -10813.968    1530.7052   0.05971414 
   88000    1170.1396   -11176.817   -10813.963    1571.7693   0.05716146 
   89000    1166.5774   -11175.717   -10813.967    1613.0275  0.059581299 
   90000    1195.5703   -11184.732   -10813.992     1651.609  0.059777521 
   91000    1189.4479   -11182.829   -10813.987    1693.7879    0.0598832 
   92000    1192.7035   -11183.831    -10813.98    1733.5761  0.063298904 
   93000    1204.9109    -11187.63   -10813.993    1775.4045  0.056390104 
   94000    1192.5217   -11183.806   -10814.011     1814.268  0.058150001 
   95000    1167.0862   -11175.875   -10813.967    1854.9703  0.057724056 
   96000    1187.8458   -11182.331   -10813.986    1896.9179  0.057696865 
   97000     1173.841   -11177.966   -10813.963    1939.2043  0.052326553 
   98000    1180.0377   -11179.901   -10813.977    1980.8395  0.062612483 
   99000    1179.7407   -11179.805   -10813.973    2023.7796  0.053830706 
  100000    1167.9565   -11176.162   -10813.985    2065.3131  0.053404235 
  101000    1194.3342   -11184.345   -10813.988    2105.9782  0.055340923 
  102000    1200.5547   -11186.295   -10814.009    2146.9621  0.054147354 
  103000    1172.1849   -11177.494   -10814.005    2188.0854  0.055320691 
  104000    1189.9654   -11183.029   -10814.027    2229.2197  0.055551089 
  105000    1204.8767   -11187.664   -10814.038    2268.4866  0.058663835 
  106000    1173.0802   -11177.789   -10814.023    2309.3482  0.061815478 
  107000    1205.5592   -11187.865   -10814.027    2351.6109  0.047764044 
  108000     1178.276   -11179.406   -10814.029    2393.9318  0.053606881 
  109000    1173.6078   -11177.954   -10814.024     2436.416   0.05455081 
  110000    1162.2368   -11174.421   -10814.017    2477.8009   0.06167495 
  111000    1147.6899   -11169.908   -10814.015    2517.8779  0.054417258 
  112000    1210.9322   -11189.527   -10814.023    2559.6198  0.051997492 
  113000    1191.5197   -11183.506   -10814.021     2603.966  0.055624578 
  114000    1168.4382   -11176.356   -10814.029    2645.1176   0.05345235 
  115000    1197.6945   -11185.439    -10814.04    2686.0409  0.059572938 
  116000    1167.6965   -11176.131   -10814.034    2727.7274  0.058478106 
  117000    1185.2893   -11181.607   -10814.055    2769.2353  0.051383954 
  118000    1164.0727   -11175.027   -10814.054    2811.5799  0.058533776 
  119000    1182.3512   -11180.695   -10814.054    2854.4471  0.057026103 
  120000    1212.3811   -11190.008   -10814.054    2896.8926  0.059655233 
  121000    1186.8118   -11182.087   -10814.062    2941.4201  0.062150402 
  122000    1205.0096   -11187.739   -10814.072    2982.3733  0.053326441 
  123000    1181.5428   -11180.462   -10814.071    3022.3862  0.056322927 
  124000    1203.2819   -11187.184   -10814.052    3063.6043  0.057115798 
  125000    1177.8793     -11179.3   -10814.045    3103.7351  0.060765991 
  126000    1169.5468   -11176.729   -10814.059     3144.542  0.056261786 
  127000    1193.1003   -11184.034    -10814.06    3185.9741  0.052507754 
  128000    1187.5296    -11182.33   -10814.083    3226.9838  0.059107381 
  129000    1212.0485   -11189.936   -10814.085    3271.0643  0.053410042 
  130000    1198.2369   -11185.627    -10814.06     3311.177  0.057057176 
  131000    1206.4566   -11188.187    -10814.07    3354.2376  0.058448645 
  132000    1172.0957   -11177.531    -10814.07    3393.7471   0.06005164 
  133000     1193.021   -11184.058   -10814.108    3434.2161  0.059678062 
  134000     1210.306   -11189.396   -10814.086    3474.7402  0.060488173 
  135000    1191.0671    -11183.41   -10814.066    3515.6604   0.05764553 
  136000    1195.7298   -11184.876   -10814.086    3556.2589  0.058392648 
  137000    1171.7577   -11177.431   -10814.074    3596.0816  0.054343449 
  138000    1208.0971   -11188.698   -10814.073    3637.3547  0.056745747 
  139000    1182.7032   -11180.841    -10814.09    3679.6601   0.05744783 
  140000    1174.0825   -11178.163   -10814.086    3721.9863  0.059647636 
  141000    1194.9448   -11184.636   -10814.089    3760.8839  0.056062959 
  142000    1163.9517   -11175.023   -10814.088    3802.0124  0.059093122 
  143000    1174.7917   -11178.387    -10814.09    3843.5654    0.0594801 
  144000    1170.0805   -11176.892   -10814.055    3883.4577  0.060752351 
  145000    1202.1274    -11186.84   -10814.066    3925.5694  0.054484218 
  146000    1182.6301   -11180.812   -10814.084    3966.0675  0.052072862 
  147000    1188.1263   -11182.498   -10814.066    4006.7432  0.057585683 
  148000    1188.7282   -11182.697   -10814.078    4047.5282  0.055429613 
  149000    1202.7581   -11187.057   -10814.087    4088.5841  0.061652733 
  150000    1197.9849   -11185.536   -10814.047    4131.5534  0.057963714 
  151000    1169.7751   -11176.791    -10814.05    4171.8074  0.058561718 
  152000    1193.0536   -11184.016   -10814.056    4212.0531  0.058465789 
  153000    1152.6139   -11171.466   -10814.046    4252.7253  0.054419915 
  154000    1159.9341   -11173.743   -10814.053    4292.0658  0.057389618 
  155000    1177.9218   -11179.326   -10814.058    4334.9341  0.053821893 
  156000     1201.459   -11186.658   -10814.092    4377.4033  0.059546249 
  157000    1182.0998   -11180.625   -10814.062    4417.6998  0.053003697 
  158000    1172.7811   -11177.744    -10814.07    4458.7315  0.054245378 
  159000    1214.1689   -11190.609   -10814.102    4500.1292  0.058381882 
  160000    1188.9213   -11182.761   -10814.082    4540.3882  0.058459592 
  161000     1187.388     -11182.3   -10814.097    4582.4169  0.058094908 
  162000    1148.2165   -11170.161   -10814.105    4622.8474  0.060350349 
  163000    1192.6798   -11183.927   -10814.083    4666.1016  0.047974635 
  164000    1198.8486   -11185.866   -10814.109     4708.856  0.043823904 
  165000    1191.9439   -11183.724   -10814.108    4752.4316  0.051707404 
  166000    1204.7736    -11187.71   -10814.116    4794.9364  0.053488547 
  167000     1172.791   -11177.776     -10814.1    4835.4684  0.055401397 
  168000    1172.0201   -11177.521   -10814.084    4877.0936  0.054016762 
  169000     1184.302   -11181.347     -10814.1    4917.5404  0.048965657 
  170000    1168.2604   -11176.349   -10814.077    4958.8125  0.052588498 
  171000    1205.3017   -11187.871   -10814.113    4999.6432  0.058978035 
  172000    1201.3881   -11186.653   -10814.109    5040.5779  0.050282287 
  173000    1171.4736   -11177.377   -10814.109    5080.6793  0.056499432 
  174000    1193.1694   -11184.104   -10814.109    5121.9058  0.059874628 
  175000    1174.0471   -11178.201   -10814.135    5163.0081  0.057749661 
  176000    1183.5864   -11181.145    -10814.12    5203.5662  0.058325251 
  177000    1202.9492   -11187.147   -10814.119    5244.6821  0.056418392 
  178000    1205.1048   -11187.821   -10814.124    5287.0764  0.050040195 
  179000    1190.8493   -11183.403   -10814.127    5328.4038  0.061044044 
  180000    1173.9428   -11178.142   -10814.108    5369.4803  0.058049803 
  181000    1198.3682   -11185.738    -10814.13    5411.3916  0.054050642 
  182000    1198.1491   -11185.646   -10814.105    5451.3559  0.059549928 
  183000    1194.0052   -11184.345    -10814.09    5493.2265  0.055930385 
  184000    1176.1294   -11178.809   -10814.097    5536.4057  0.058166337 
  185000    1195.0333   -11184.692   -10814.118     5576.358  0.062516962 
  186000    1198.1584   -11185.673    -10814.13    5617.5555  0.059110224 
  187000     1170.842   -11177.212    -10814.14    5657.3355  0.059446298 
  188000    1192.5837   -11183.954    -10814.14    5697.9683  0.055265611 
  189000    1195.3372   -11184.812   -10814.143    5739.7715  0.056478571 
  190000     1180.354   -11180.169   -10814.147    5781.7595  0.054384541 
  191000    1181.9853   -11180.682   -10814.154    5822.1914  0.064163009 
  192000    1176.0746   -11178.818   -10814.123    5863.3576  0.057721711 
  193000    1181.8303   -11180.628   -10814.148    5905.2849  0.058492389 
  194000    1187.7043    -11182.45   -10814.149    5946.0067  0.059601627 
  195000    1186.8044   -11182.181   -10814.158    5986.5091   0.05826974 
  196000    1208.8212   -11189.014   -10814.164    6029.2166  0.056013313 
  197000    1173.9023   -11178.186   -10814.164    6071.2406  0.058740076 
  198000    1204.2905   -11187.586   -10814.141    6110.7244  0.059780431 
  199000    1165.6408   -11175.596   -10814.136    6152.6334  0.055841053 
  200000    1194.6066   -11184.576   -10814.135    6193.1911  0.054787771 
  201000    1188.6787   -11182.744   -10814.141     6233.527  0.056975785 
  202000    1171.8553   -11177.553   -10814.166    6274.2237  0.059408052 
  203000    1226.1178   -11194.389   -10814.176    6314.7528  0.058464845 
  204000     1153.694   -11171.929   -10814.174    6354.9011  0.055410251 
  205000    1203.5432   -11187.377   -10814.164     6398.111  0.053762941 
  206000    1193.6449   -11184.297   -10814.153    6439.5124  0.059780452 
  207000    1208.4498    -11188.92   -10814.186    6481.2837  0.057152792 
  208000    1174.0734   -11178.222   -10814.147    6522.0257  0.054314894 
  209000    1171.5754   -11177.456   -10814.156     6562.588  0.052584701 
  210000    1183.3719    -11181.11   -10814.153    6603.7501  0.055933695 
  211000    1199.3432   -11186.084   -10814.174    6644.8061  0.054611481 
  212000    1217.2995   -11191.688   -10814.209    6686.5583  0.055789318 
  213000    1209.0046   -11189.082   -10814.176    6728.2119  0.056016933 
  214000    1193.0073   -11184.133   -10814.187    6768.4475   0.05630246 
  215000     1169.302   -11176.747   -10814.152    6807.8876  0.054639754 
  216000    1181.9402   -11180.685   -10814.171    6849.4114  0.051396932 
  217000    1174.1076   -11178.272   -10814.187    6889.5492  0.054956909 
  218000    1162.9888   -11174.802   -10814.165    6931.9392  0.051421681 
  219000    1189.7212   -11183.106    -10814.18    6973.3213  0.056784769 
  220000     1195.933   -11185.035   -10814.182    7016.9346  0.050903245 
  221000    1212.4782   -11190.176   -10814.192    7056.8234   0.06138398 
  222000    1165.4281   -11175.579   -10814.186    7098.0784  0.055164909 
  223000    1190.5219   -11183.389   -10814.214    7139.9435  0.053460996 
  224000    1175.2489   -11178.648    -10814.21    7179.8111   0.05855532 
  225000     1157.648   -11173.196   -10814.215    7220.7032  0.056825893 
  226000    1170.3255   -11177.123   -10814.211    7263.0124  0.063275019 
  227000     1220.743   -11192.782   -10814.236    7302.8226  0.058071879 
  228000    1194.6736   -11184.672   -10814.209    7345.0211  0.052793935 
  229000    1174.1908   -11178.299   -10814.188    7384.5826  0.056279663 
  230000    1167.8625   -11176.324   -10814.176    7428.3319  0.054269401 
  231000    1173.0111   -11177.946   -10814.201    7468.6641  0.054347785 
  232000    1198.1645   -11185.741   -10814.196    7509.1594  0.059858419 
  233000    1181.0245   -11180.445   -10814.215    7550.3441  0.060031494 
  234000    1209.0137   -11189.131   -10814.222    7590.4631   0.05818007 
  235000     1174.131   -11178.283   -10814.191    7629.8242  0.058082382 
  236000    1210.2234   -11189.484     -10814.2    7672.9067  0.055636969 
  237000    1197.2166   -11185.456   -10814.205    7713.5231  0.056823789 
  238000    1153.6614   -11171.948   -10814.204    7754.9998  0.061036622 
  239000    1205.1163     -11187.9     -10814.2    7795.7399  0.050210631 
  240000    1184.7134   -11181.593   -10814.219     7837.966  0.057664178 
  241000    1207.5611   -11188.694   -10814.236    7877.6004  0.058192241 
  242000    1204.9351   -11187.857   -10814.213    7918.6912  0.058127506 
  243000    1176.6448   -11179.079   -10814.207    7961.1128  0.054395212 
  244000    1182.2773   -11180.822   -10814.204    8002.9747  0.058586823 
  245000    1197.6085   -11185.609   -10814.237    8043.4056  0.056047473 
  246000    1196.6606   -11185.301   -10814.222    8085.6767  0.053311186 
  247000    1205.3583   -11187.995   -10814.219     8128.229  0.055859355 
  248000    1215.6072   -11191.173   -10814.219    8169.6925  0.054022181 
  249000     1189.151   -11182.979    -10814.23    8210.6555  0.052970333 
  250000    1192.3485   -11183.954   -10814.213    8251.6911  0.054442128 
Loop time of 44384.5 on 1 procs for 200000 steps with 2400 atoms

Performance: 0.389 ns/day, 61.645 hours/ns, 4.506 timesteps/s
99.0% CPU use with 1 MPI tasks x 1 OpenMP threads

MPI task timing breakdown:
Section |  min time  |  avg time  |  max time  |%varavg| %total
---------------------------------------------------------------
Pair    | 44220      | 44220      | 44220      |   0.0 | 99.63
Neigh   | 136.95     | 136.95     | 136.95     |   0.0 |  0.31
Comm    | 13.234     | 13.234     | 13.234     |   0.0 |  0.03
Output  | 0.0066632  | 0.0066632  | 0.0066632  |   0.0 |  0.00
Modify  | 10.26      | 10.26      | 10.26      |   0.0 |  0.02
Other   |            | 4.152      |            |       |  0.01

Nlocal:        2400.00 ave        2400 max        2400 min
Histogram: 1 0 0 0 0 0 0 0 0 0
Nghost:        5359.00 ave        5359 max        5359 min
Histogram: 1 0 0 0 0 0 0 0 0 0
Neighs:         0.00000 ave           0 max           0 min
Histogram: 1 0 0 0 0 0 0 0 0 0
FullNghs:      291564.0 ave      291564 max      291564 min
Histogram: 1 0 0 0 0 0 0 0 0 0

Total # of neighbors = 291564
Ave neighs/atom = 121.48500
Neighbor list builds = 9234
Dangerous builds = 0

#------------------------------------------
# thermal conductivity calculation
fix             3 all thermal/conductivity 10 z 20

variable start_time equal time
variable kappa equal (f_3/(time-${start_time})/(lx*ly)/2.0)*(lz/2.0)/f_ave
variable kappa equal (f_3/(time-250)/(lx*ly)/2.0)*(lz/2.0)/f_ave

fix             ave all ave/time 1 1 1000 v_tdiff ave running
thermo_style    custom step temp epair etotal f_3 v_tdiff f_ave

run 200000
Per MPI rank memory allocation (min/avg/max) = 4.502 | 4.502 | 4.502 Mbytes
Step Temp E_pair TotEng f_3 v_tdiff f_ave 
  250000    1192.3485   -11183.952   -10814.211            0  0.054442128  0.054442128 
  251000    1197.5115   -11185.563   -10814.221    40.254722  0.062090467  0.058266297 
  252000    1200.6892    -11186.57   -10814.242    81.668963  0.059738887   0.05875716 
  253000    1175.1387    -11178.64   -10814.235    120.92323  0.060894385  0.059291466 
  254000    1184.9482   -11181.671   -10814.224     161.6647  0.063298967  0.060092967 
  255000    1155.3463   -11172.481   -10814.214    200.77911   0.05807847  0.059757217 
  256000    1206.9839   -11188.537   -10814.257    241.52122  0.053253232  0.058828077 
  257000    1227.0763   -11194.763   -10814.252    282.82042  0.057885055  0.058710199 
  258000    1201.2728   -11186.786   -10814.277    322.70769  0.055652845  0.058370493 
  259000    1183.2956   -11181.179   -10814.245      364.284  0.054307837  0.057964227 
  260000    1197.4698   -11185.599   -10814.269    405.38054  0.054353228  0.057635955 
  261000    1181.6794   -11180.705   -10814.272    447.46481   0.05377426  0.057314147 
  262000    1208.7134   -11189.092   -10814.276    488.48191  0.060113023  0.057529445 
  263000    1194.6344   -11184.719   -10814.268    529.04883  0.059024893  0.057636263 
  264000    1220.7747   -11192.827   -10814.271    569.60865  0.057269432  0.057611807 
  265000    1177.7672   -11179.485   -10814.266    609.43545  0.057394777  0.057598243 
  266000    1168.9969   -11176.756   -10814.256    651.83108  0.054895919  0.057439283 
  267000    1185.4736   -11181.881   -10814.271    695.44778  0.058023985  0.057471766 
  268000    1199.6361   -11186.272   -10814.271    737.10987  0.058769293  0.057540057 
  269000    1184.9105   -11181.737   -10814.302    779.93628  0.059290614  0.057627585 
  270000    1194.0706   -11184.542   -10814.267      821.793  0.056463827  0.057572168 
  271000    1191.8067   -11183.855   -10814.282    863.34042  0.053898464  0.057405181 
  272000    1177.3804   -11179.404   -10814.304    906.37313  0.057990311  0.057430622 
  273000    1179.0519    -11179.92   -10814.302    944.32066  0.060849029  0.057573055 
  274000    1191.5387   -11183.783   -10814.293    986.20688  0.058970208  0.057628941 
  275000     1148.472   -11170.426    -10814.29    1027.1081  0.054896922  0.057523864 
  276000    1173.2062   -11178.092   -10814.286    1069.9361  0.056388541  0.057481815 
  277000     1166.701   -11176.077   -10814.289    1109.8995  0.055611682  0.057415024 
  278000    1185.7059   -11181.986   -10814.305    1153.8778  0.049095222  0.057128135 
  279000    1191.7387   -11183.866   -10814.314     1196.671  0.057131954  0.057128262 
  280000     1174.268   -11178.441   -10814.307    1239.3041  0.051945895  0.056961089 
  281000    1177.0631   -11179.293   -10814.291     1280.955  0.054279756  0.056877297 
  282000    1195.0001   -11184.878   -10814.314    1322.8963  0.058674277  0.056931751 
  283000    1191.5577   -11183.811   -10814.314    1364.9068   0.05181816  0.056781351 
  284000    1209.7882   -11189.458   -10814.309    1407.0482   0.05202051  0.056645327 
  285000    1213.4958   -11190.611   -10814.312    1450.5591  0.056487132  0.056640933 
  286000    1175.8673   -11178.963   -10814.332    1490.8228  0.057178037  0.056655449 
  287000    1166.4968   -11176.034   -10814.309    1531.8232   0.06490104  0.056872439 
  288000    1215.5786   -11191.263   -10814.318    1573.3176  0.063561749  0.057043959 
  289000    1183.4066   -11181.292   -10814.323    1613.2089  0.058298637  0.057075326 
  290000    1208.0029   -11188.931   -10814.335    1655.2645   0.05911168  0.057124994 
  291000    1187.7042   -11182.613   -10814.312    1696.3854  0.055630423  0.057089408 
  292000    1201.8838   -11187.029   -10814.331    1737.4778  0.055262319  0.057046918 
  293000    1164.7991   -11175.514   -10814.315    1780.4724  0.058823812  0.057087302 
  294000    1193.2733   -11184.354   -10814.325    1823.3041  0.048512573  0.056896752 
  295000    1168.7841   -11176.764   -10814.329    1865.5672  0.054900078  0.056853347 
  296000    1171.3542   -11177.554   -10814.323    1907.0607  0.060231165  0.056925215 
  297000     1189.025   -11183.048   -10814.337    1947.5911  0.056562379  0.056917656 
  298000    1196.6493    -11185.41   -10814.335    1986.8724  0.057040941  0.056920172 
  299000    1170.2483   -11177.197   -10814.309     2029.316  0.059297409  0.056967717 
  300000    1171.5635   -11177.627   -10814.331    2069.0489  0.060127382  0.057029671 
  301000    1170.0987   -11177.181   -10814.339    2110.8519  0.054794469  0.056986686 
  302000    1193.9215   -11184.571   -10814.342    2152.8252  0.056060068  0.056969203 
  303000    1214.8631   -11191.069   -10814.346     2194.841  0.057898959  0.056986421 
  304000    1195.7206   -11185.124   -10814.337     2236.991  0.053134238  0.056916381 
  305000    1211.5952    -11190.06    -10814.35    2278.5706  0.058708216  0.056948378 
  306000    1191.0011   -11183.697   -10814.374     2319.398  0.049001597  0.056808961 
  307000    1193.0533   -11184.308   -10814.348    2361.7316  0.047631391  0.056650727 
  308000    1174.8445   -11178.677   -10814.363     2403.099  0.052016144  0.056572175 
  309000      1184.93   -11181.805   -10814.364    2444.9882  0.052306216  0.056501075 
  310000    1171.9068   -11177.768   -10814.365    2486.8092  0.052041645   0.05642797 
  311000    1221.7139   -11193.231   -10814.384    2528.6261  0.060819199  0.056498796 
  312000    1165.7643   -11175.852   -10814.354     2569.886   0.06173668  0.056581937 
  313000    1197.7688   -11185.801   -10814.379    2609.9325   0.05470771  0.056552652 
  314000    1216.7741   -11191.706    -10814.39    2651.3784  0.052136402   0.05648471 
  315000    1196.8715   -11185.536   -10814.392    2691.2225  0.053987113  0.056446868 
  316000    1200.3779   -11186.596   -10814.364    2732.1012  0.054262084  0.056414259 
  317000    1188.7946   -11183.011   -10814.371    2772.8621  0.056388756  0.056413884 
  318000    1194.5697   -11184.803   -10814.373    2814.8637  0.055968546   0.05640743 
  319000    1191.2332   -11183.788   -10814.393     2857.936  0.055929454  0.056400601 
  320000    1169.8235   -11177.147   -10814.391    2896.4098  0.055099516  0.056382276 
  321000    1178.6043    -11179.87   -10814.391    2936.0285  0.053237323  0.056338596 
  322000     1185.754   -11182.115   -10814.419    2976.0795  0.055981176    0.0563337 
  323000    1197.6364   -11185.781     -10814.4    3016.5579  0.056563129  0.056336801 
  324000    1195.9366   -11185.282   -10814.428    3058.2165  0.055810859  0.056329788 
  325000    1183.3378   -11181.369   -10814.422    3100.6356  0.057271841  0.056342184 
  326000    1181.7723   -11180.873   -10814.411    3142.2608  0.054549276  0.056318899 
  327000    1194.3519   -11184.794   -10814.431    3183.2806  0.052988117  0.056276197 
  328000     1195.627     -11185.2   -10814.442    3224.1301  0.050069659  0.056197633 
  329000    1213.7773   -11190.815   -10814.429     3265.171  0.057781739  0.056217434 
  330000    1199.5943   -11186.413   -10814.425    3306.0364  0.053641061  0.056185627 
  331000    1200.5799   -11186.737   -10814.443    3349.4105  0.048133669  0.056087433 
  332000    1196.4484   -11185.443   -10814.431    3392.2804  0.044657994  0.055949728 
  333000    1185.0112     -11181.9   -10814.434    3432.3053  0.054464835  0.055932051 
  334000    1212.3457   -11190.378   -10814.435    3472.2539  0.063439617  0.056020375 
  335000      1170.96   -11177.542   -10814.433    3512.7302  0.058359618  0.056047576 
  336000    1196.7674   -11185.559   -10814.447    3556.4286  0.058168082   0.05607195 
  337000    1175.6066   -11178.996   -10814.446    3597.7335  0.063518703  0.056156572 
  338000    1188.3173   -11182.941    -10814.45    3638.0646  0.056208998  0.056157161 
  339000    1193.4596   -11184.539   -10814.453    3680.4009  0.055749574  0.056152632 
  340000    1172.8349   -11178.142   -10814.451    3720.7044  0.058823102  0.056181978 
  341000    1175.4352   -11178.959   -10814.462    3761.7649  0.058066425  0.056202461 
  342000    1197.9035   -11185.919   -10814.455    3802.2331  0.054986793  0.056189389 
  343000    1166.8319   -11176.279    -10814.45    3843.4884  0.053915378  0.056165198 
  344000    1220.3577   -11192.891   -10814.464    3882.2755   0.05242033  0.056125778 
  345000    1194.7776   -11184.975    -10814.48    3922.6101  0.055356797  0.056117768 
  346000    1192.9868   -11184.402   -10814.463    3963.5751  0.053577772  0.056091582 
  347000    1196.4904   -11185.485    -10814.46    4003.6316  0.051818929  0.056047984 
  348000    1209.7694   -11189.617   -10814.474    4043.9379   0.05556869  0.056043142 
  349000    1197.1312   -11185.711   -10814.486    4085.3963  0.049779863   0.05598051 
  350000    1180.2869   -11180.479   -10814.477    4126.5348  0.053075609  0.055951748 
  351000    1184.6614   -11181.824   -10814.467    4167.6733  0.053577323   0.05592847 
  352000     1166.199   -11176.112    -10814.48    4208.9861  0.056085571  0.055929995 
  353000    1196.9922   -11185.645   -10814.463    4251.4181  0.058762064  0.055957226 
  354000    1180.6235   -11180.563   -10814.458    4291.6749  0.059530446  0.055991257 
  355000    1194.2066     -11184.8   -10814.482    4332.2856  0.054869439  0.055980674 
  356000     1171.708   -11177.826   -10814.485     4374.894  0.055706169  0.055978108 
  357000    1208.4249   -11189.204   -10814.477    4417.2707  0.052548746  0.055946355 
  358000    1202.4427   -11187.365   -10814.494    4457.5033  0.054847733  0.055936276 
  359000    1165.1137   -11175.791   -10814.495    4500.8341  0.058531393  0.055959868 
  360000    1200.9469   -11186.897    -10814.49    4540.0485  0.055981679  0.055960064 
  361000    1164.4668   -11175.583   -10814.488    4579.0612  0.054303391  0.055945273 
  362000    1183.3494   -11181.437   -10814.486    4619.2132  0.051249589  0.055903718 
  363000    1167.2756   -11176.455   -10814.489    4662.0379  0.049200608  0.055844919 
  364000    1162.3762    -11174.92   -10814.473    4701.0364  0.060188762  0.055882691 
  365000    1187.2657   -11182.653   -10814.488    4741.4565   0.05307053  0.055858448 
  366000    1211.8505    -11190.29   -10814.501     4782.289  0.048772102  0.055797881 
  367000    1171.4412   -11177.726   -10814.467    4823.0446  0.056932916    0.0558075 
  368000    1180.6123   -11180.596   -10814.494    4861.6648  0.058983461  0.055834189 
  369000    1206.4063   -11188.584   -10814.483    4903.4241   0.05848625   0.05585629 
  370000    1182.3413   -11181.129   -10814.491      4944.56  0.051964694  0.055824128 
  371000    1209.2618   -11189.477    -10814.49    4985.3454  0.059312746  0.055852723 
  372000     1188.592   -11183.069   -10814.493    5026.7532   0.05966625  0.055883727 
  373000     1213.582   -11190.864   -10814.538    5065.8157  0.056581647  0.055889356 
  374000    1177.6677   -11179.691   -10814.502    5110.3502  0.054462407   0.05587794 
  375000    1173.6767    -11178.46   -10814.509    5151.5904  0.055947239   0.05587849 
  376000    1166.8264   -11176.351   -10814.523    5191.2518  0.059860349  0.055909843 
  377000    1175.0737   -11178.909   -10814.525    5233.1384  0.057489278  0.055922182 
  378000    1171.9809   -11177.964   -10814.538    5276.3424  0.050269297  0.055878362 
  379000    1178.5994   -11180.011   -10814.533    5317.9651  0.051176732  0.055842195 
  380000    1164.7666    -11175.73   -10814.542    5358.9468  0.053085574  0.055821152 
  381000    1187.9167    -11182.92   -10814.553    5402.5179  0.056949402    0.0558297 
  382000    1183.6627   -11181.605   -10814.557    5443.5707  0.052684958  0.055806055 
  383000    1179.7666   -11180.383   -10814.543    5484.6177  0.056951891  0.055814606 
  384000    1170.0954   -11177.393   -10814.552     5527.214  0.051405902  0.055781949 
  385000    1184.3814   -11181.834   -10814.563      5567.76  0.060735107  0.055818369 
  386000    1173.0331   -11178.318   -10814.567    5608.8506  0.055866662  0.055818722 
  387000    1186.9492   -11182.637    -10814.57    5649.2074  0.059929814  0.055848512 
  388000    1152.3458   -11171.872   -10814.535    5688.2456  0.062717171  0.055897927 
  389000     1214.115   -11191.056   -10814.565    5728.9853  0.052243101  0.055871821 
  390000     1166.129   -11176.157   -10814.546    5769.8798  0.061501794   0.05591175 
  391000    1178.5496   -11180.016   -10814.553    5808.1938  0.062976911  0.055961505 
  392000    1201.7027    -11187.23   -10814.588    5849.5123  0.059356293  0.055985245 
  393000    1190.2364   -11183.664   -10814.578     5890.578  0.056709273  0.055990272 
  394000    1191.5799   -11184.095   -10814.592    5929.8722  0.057328752  0.055999503 
  395000    1159.8287   -11174.216   -10814.559    5971.2594  0.056287976  0.056001479 
  396000     1201.382   -11187.137   -10814.594    6012.3613  0.057232192  0.056009851 
  397000    1201.1185    -11187.05   -10814.589    6053.6669  0.055801873  0.056008446 
  398000     1222.493    -11193.67   -10814.581    6097.2531  0.053241812  0.055989878 
  399000    1190.8382   -11183.856   -10814.583    6136.8365  0.062167855  0.056031065 
  400000     1178.678   -11180.068   -10814.566    6176.0332  0.056927853  0.056037004 
  401000    1186.0249   -11182.375   -10814.594    6215.1408  0.052586015    0.0560143 
  402000    1199.8562   -11186.655   -10814.586     6257.449  0.054865481  0.056006791 
  403000    1191.5712   -11184.073   -10814.573    6300.2697  0.054318948  0.055995831 
  404000    1191.6668   -11184.115   -10814.585    6342.9942  0.059012353  0.056015293 
  405000    1167.1198   -11176.479    -10814.56    6386.3068  0.052015931  0.055989656 
  406000    1157.6933   -11173.559   -10814.564     6427.241  0.054867572  0.055982509 
  407000    1204.4407   -11188.062    -10814.57    6469.6836  0.055710878  0.055980789 
  408000     1182.936   -11181.396   -10814.574    6511.5426  0.053571185  0.055965635 
  409000    1177.9173   -11179.845   -10814.578    6551.9605  0.051574244  0.055938188 
  410000     1185.541   -11182.195   -10814.565    6594.6008  0.055652301  0.055936413 
  411000    1190.7513   -11183.826    -10814.58    6635.4659  0.053597658  0.055921976 
  412000    1165.5222   -11175.997   -10814.574    6677.0397  0.050259515  0.055887237 
  413000     1188.426   -11183.085    -10814.56    6718.3657  0.054186159  0.055876865 
  414000    1180.8469   -11180.752   -10814.577    6759.4887  0.054261995  0.055867077 
  415000    1180.5597   -11180.638   -10814.552     6800.528  0.053217722  0.055851118 
  416000     1168.989   -11177.072   -10814.575    6842.9049  0.051801952  0.055826871 
  417000    1175.9058    -11179.22   -10814.577    6883.8236  0.054915093  0.055821444 
  418000     1169.647   -11177.285   -10814.583    6925.0558   0.05798809  0.055834264 
  419000    1178.9371   -11180.166   -10814.583    6967.4592  0.061988256  0.055870464 
  420000    1175.6547   -11179.154    -10814.59    7008.4532  0.059289065  0.055890456 
  421000    1198.8238   -11186.363   -10814.614    7050.2883  0.054988133   0.05588521 
  422000    1179.9023   -11180.483   -10814.602    7090.1042  0.055188066   0.05588118 
  423000     1185.273   -11182.112   -10814.565    7129.8707  0.056047149  0.055882134 
  424000    1177.0469    -11179.59   -10814.593    7171.9407   0.05670647  0.055886844 
  425000    1195.5635    -11185.35   -10814.611    7212.9338  0.060288805  0.055911856 
  426000    1199.2655   -11186.481   -10814.595     7254.949   0.05554628   0.05590979 
  427000     1171.574   -11177.908   -10814.609    7296.8464  0.055972496  0.055910142 
  428000    1185.0395   -11182.064    -10814.59     7339.901  0.056959219  0.055916003 
  429000    1190.5588   -11183.783   -10814.597    7379.8144  0.054224998  0.055906609 
  430000    1177.4982   -11179.746    -10814.61    7419.7921   0.05534588  0.055903511 
  431000    1170.3061   -11177.522   -10814.616    7460.5669  0.056125389   0.05590473 
  432000    1190.2072   -11183.675   -10814.597    7500.3916   0.05446063  0.055896839 
  433000    1193.8954   -11184.851   -10814.629    7541.8377  0.054248422   0.05588788 
  434000    1204.1154   -11188.014   -10814.623    7584.8093  0.059061267  0.055905033 
  435000    1178.5311   -11180.063   -10814.607    7622.0541  0.060839645  0.055931564 
  436000    1183.6015   -11181.632   -10814.603    7663.2255  0.061314526  0.055960349 
  437000    1186.2472   -11182.477   -10814.627    7702.1004  0.061975604  0.055992345 
  438000    1200.5023    -11186.89    -10814.62    7742.0897  0.059583047  0.056011344 
  439000    1204.4066     -11188.1   -10814.619    7782.9834  0.058978079  0.056026958 
  440000    1197.6058   -11185.984   -10814.613     7823.449  0.058812776  0.056041544 
  441000    1203.7311   -11187.899   -10814.628    7863.7563  0.059089532  0.056057419 
  442000    1181.7347   -11181.075   -10814.625    7905.4026  0.051161482  0.056032051 
  443000    1208.1464    -11189.26    -10814.62    7946.6833  0.048914838  0.055995364 
  444000    1191.6868   -11184.177   -10814.641    7987.7521  0.052242099  0.055976117 
  445000    1195.1678   -11185.256    -10814.64    8027.7631   0.05506715  0.055971479 
  446000    1165.9121   -11176.166   -10814.622    8067.5711  0.054603524  0.055964535 
  447000    1195.4261   -11185.318   -10814.623    8110.4499  0.054877637  0.055959046 
  448000    1178.6673   -11180.143   -10814.644    8151.7923  0.057784532  0.055968219 
  449000    1214.3712   -11191.208   -10814.637    8193.0157  0.056860574  0.055972681 
  450000    1192.0027    -11184.27   -10814.635    8235.7422   0.05299614  0.055957872 
Loop time of 44341.8 on 1 procs for 200000 steps with 2400 atoms

Performance: 0.390 ns/day, 61.586 hours/ns, 4.510 timesteps/s
98.9% CPU use with 1 MPI tasks x 1 OpenMP threads

MPI task timing breakdown:
Section |  min time  |  avg time  |  max time  |%varavg| %total
---------------------------------------------------------------
Pair    | 44178      | 44178      | 44178      |   0.0 | 99.63
Neigh   | 136.3      | 136.3      | 136.3      |   0.0 |  0.31
Comm    | 13.163     | 13.163     | 13.163     |   0.0 |  0.03
Output  | 0.0059847  | 0.0059847  | 0.0059847  |   0.0 |  0.00
Modify  | 10.422     | 10.422     | 10.422     |   0.0 |  0.02
Other   |            | 4.123      |            |       |  0.01

Nlocal:        2400.00 ave        2400 max        2400 min
Histogram: 1 0 0 0 0 0 0 0 0 0
Nghost:        5313.00 ave        5313 max        5313 min
Histogram: 1 0 0 0 0 0 0 0 0 0
Neighs:         0.00000 ave           0 max           0 min
Histogram: 1 0 0 0 0 0 0 0 0 0
FullNghs:      291650.0 ave      291650 max      291650 min
Histogram: 1 0 0 0 0 0 0 0 0 0

Total # of neighbors = 291650
Ave neighs/atom = 121.52083
Neighbor list builds = 9216
Dangerous builds = 0
print           "Running average thermal conductivity: $(v_kappa:%.2f)"
Running average thermal conductivity: 11.62

write_data	Therm_${Tsim}_restartpoint.lammps
write_data	Therm_1200_restartpoint.lammps
System init for write_data ...

Total wall time: 27:43:21
