LAMMPS data file via write_data, version 29 Sep 2021, timestep = 450000

2400 atoms
3 atom types

0 21.105942277028205 xlo xhi
0 31.658913415542308 ylo yhi
0 42.21188455405641 zlo zhi

Masses

1 18.998403163
2 6.938
3 22.989769

Atoms # atomic

2081 2 20.33014049238345 3.370714211746009 2.665510752413353 -1 1 1
36 1 0.4268888024753277 3.8032340272877807 0.7181110569548176 1 -1 1
1035 1 2.445905230714566 1.2025034995705792 2.6894928642546945 0 1 -1
709 1 5.6747295252951995 1.0807191415409316 42.13662952085575 2 -1 0
287 2 1.2378724935181162 2.1797335220619276 4.914338620325558 0 1 0
97 2 5.110137750898378 1.1380558795518059 1.6376575401829545 0 0 0
768 2 8.201282384916228 1.2132587347109571 2.2425916916483586 2 -1 0
1200 2 6.972367592262403 3.6603768798675675 2.479409867006549 -1 1 1
231 1 8.615273843376004 2.0237953073776525 0.5957837134328313 -1 -1 0
1711 1 7.081531871437124 4.826063606845938 0.8255246641358842 2 1 0
858 2 10.455197698894006 1.896425701556901 41.914005263736115 -2 1 -1
2336 1 12.02902883205865 3.4214333425995136 2.831993434645635 3 1 1
162 2 11.22621741612382 1.1173649797631164 2.55458661955652 0 1 0
119 1 13.104330936671872 2.8635016895440137 42.196903129953576 2 0 -1
654 2 13.690986804474873 2.4488954709029724 1.5652801463348112 0 -1 0
415 1 11.437808168980338 0.7351179169412358 0.7533689899999654 1 1 1
667 2 18.542532934218027 0.9351773087409236 3.2055055304078857 1 0 0
852 2 18.00821020667172 2.13145469236528 0.21637271697609858 2 3 -1
439 1 16.5107716346506 2.811944301691538 41.27689623042021 0 1 0
2018 1 20.24284478932771 1.4897031574532393 3.161378948028497 0 -1 2
945 1 18.272016894184823 2.548078335450885 1.9948148422979162 0 1 0
957 2 19.7074412208248 0.19844896239651152 0.9633790077631138 0 0 0
84 2 0.7573085334997754 0.9147221367051572 2.5985704763392268 2 -1 2
1247 1 0.4668636419083743 0.5517311098089749 0.7732726212521456 1 0 2
583 2 17.71709653156372 4.289800980132216 2.612404511987106 -3 -2 0
2017 1 1.8278833076422132 6.167827713576861 3.421513529042955 0 1 1
197 2 2.0323292445887673 4.5838758683756025 0.004350564847285909 4 0 1
403 1 1.4556312502194022 6.342930629840578 42.136500651991796 1 1 -1
2305 1 3.151041444313249 3.9717785885088754 1.278574398387672 2 1 1
2084 2 5.580460824341567 6.3091852829521 0.565832977291632 -3 -1 1
704 1 6.291896994858632 2.081806156171921 2.4676125361539505 0 1 0
633 1 6.912643813214923 4.431787913132226 3.9182620213458668 2 -1 0
1976 2 8.274290311858097 4.130258099156509 41.83162121609412 0 -2 -1
1330 1 7.5593993335221175 7.380458870392037 0.0007123844859389205 0 1 1
1114 1 9.369375254982584 5.695268244657365 2.049577436116796 3 0 0
590 2 10.327272310256394 3.4439104912917915 1.8948597845960307 0 2 0
1849 1 11.37645302041879 6.5278276365622006 3.0770451672115136 -2 0 0
355 2 12.632734992764028 5.275984266150096 2.7688909997262208 0 -1 0
2106 1 14.709898104005658 6.1227585521767125 41.465341509134724 -2 1 -1
140 1 17.450903352949286 4.9519737747622745 1.1125104749708956 -1 0 0
1368 2 16.26505208025696 6.321667769960929 0.35093665453943174 -2 -1 2
1731 1 15.085454418858859 3.815724485370423 1.7681431946372985 2 0 0
1160 2 18.566493403735212 7.297557344239405 1.1105595275016453 -2 -2 1
1451 2 21.035104284382147 5.888118834628172 1.9004509236972376 -1 -2 -1
2099 2 19.82318511087999 4.669377482795138 42.047310013019846 0 -2 -1
1101 1 19.56957602912056 5.210489118893294 3.0435775239439273 -1 -1 0
842 1 18.774380280647485 8.361187569058266 2.4317177425451204 0 0 0
1832 1 2.788970840269536 8.990625051262159 2.0751723333363983 -1 -1 1
378 2 1.059569371664807 10.46080630048512 0.09816952692501246 -2 -1 0
1704 1 5.701985653942163 8.807005854081046 1.017914559677427 1 0 1
593 2 4.385512433240162 8.173012229171164 2.301242384664537 3 -1 -1
1723 1 4.673433242646634 6.497907018013848 2.2624330909929005 0 0 0
1413 1 9.073441743377787 10.087176102522434 41.77709587660814 0 0 0
1077 2 7.740278123195845 6.24931089778191 1.7680684185186089 2 0 0
1823 1 7.17840221385986 7.3082718890557645 3.1526605650246156 0 0 0
1883 2 10.533717846394508 6.3842738912344945 0.8152296079211078 -1 0 0
1444 1 13.784684209604317 8.53216929194404 0.460776558715082 0 0 -1
2133 1 10.674714084580373 8.213232538973564 1.237652532520165 -1 0 0
797 2 10.676898506007724 9.379573535100437 2.771083207121182 2 -1 0
78 2 15.359275508797307 8.222602957084279 1.3125596684328082 -1 -2 0
943 1 17.30176137244743 7.878120739594877 42.04869953505663 1 0 -1
1166 2 19.163281886980073 11.635081882549732 4.917746840017474 0 -1 0
1238 1 15.983022669539245 9.422341829341518 2.6204497060903438 1 0 1
1183 2 17.098539739996856 8.61752316978492 3.92910476411003 0 0 1
734 1 20.943862553440308 9.215260650791738 0.9279588056058922 2 0 0
68 2 19.623551045453187 10.138897491382327 41.57094873698177 -2 0 0
557 2 19.854619028622626 9.462185268991863 2.7383641640099983 0 0 -2
1202 1 18.19156685160714 11.070531821257989 2.5603245897647815 -1 0 0
2365 2 1.1385457485554569 12.190942242945658 3.1740902290451176 1 0 0
1211 1 1.1979979655691442 11.868904357452399 1.3024749532861182 -2 0 1
1347 1 4.226204282575578 12.342717305050602 1.562454694140327 0 -1 0
364 2 20.490206513067154 12.559619422267769 0.7571685790128662 1 -1 1
1659 2 3.620885396338701 13.762173394463423 2.82820738737888 -2 2 1
125 1 7.362988264546459 11.74004077418336 1.965028383613161 0 0 0
1994 2 6.359589982821724 12.023525497633964 0.3632482776505558 0 -2 0
1888 2 6.304410551845815 12.731599906183824 3.1014491293137314 1 0 2
2117 1 10.666592551050684 11.552592436921385 2.419502734224684 0 -1 1
2260 2 9.61235822004586 10.903032978633227 1.0342943852759092 2 2 0
100 2 10.205257181432449 8.832607266047717 41.16970587710579 -1 1 0
518 1 13.369959934972613 11.606822005695447 1.3574174309021805 2 0 1
357 2 12.863287706228673 11.758205019581718 2.871668412171532 1 0 0
1324 1 12.924808411951442 13.523641710571248 2.951593116360001 2 -1 2
1772 2 11.746105305273701 15.008037238268923 1.466358704437044 1 1 0
1848 1 14.544916772987285 13.907130382019401 41.53467939224463 0 -1 0
56 2 15.261359718186446 12.614019965665193 0.4922777638225364 0 0 1
771 2 12.366049027335693 12.879492882398024 42.091046594029045 0 -1 1
1376 2 14.23557091442518 9.715533945429002 3.5321726466478154 -1 -1 0
1981 2 18.009925383530867 12.99561617712956 1.9810658432776582 -1 1 0
2114 1 16.19981855049056 12.923768935880844 1.9761511578925064 -1 0 0
2316 1 20.55382143704462 12.327322071373535 3.948339028970721 -3 1 0
1526 1 19.31077763376008 13.837682906506272 0.9871167434174902 0 0 2
570 2 17.213928343664787 10.616919473531114 1.1614408569057193 -1 1 0
2125 1 2.0239125812227976 13.983381514607368 3.981472342998559 1 0 1
949 1 2.82070225513054 17.294807347858818 2.533174173952655 1 0 0
1184 2 2.373971042824427 16.184384634391893 1.011477431451508 -1 0 0
2091 2 1.2917927003781187 16.299096693315793 3.440100826492757 1 0 1
2129 1 5.739479526463976 17.26620790243859 0.8767402193563141 -1 0 2
1793 2 3.8897293045548134 16.833122998082317 3.58854171139657 2 0 0
1409 1 3.485880286124788 14.908409056101217 1.0766657653268115 2 -1 1
832 1 6.525373344275254 14.550292871637824 1.9994937532044896 -1 1 1
89 2 7.629396062777785 14.004034487309182 0.4484838815174287 0 0 -1
611 1 11.002824693907998 17.131507003569492 0.9701646659268051 -2 -1 2
367 2 9.556014436873175 16.31889537010679 3.1317900892534962 1 0 1
449 1 11.287751519000238 17.64160143161991 3.8460935336312447 1 0 0
242 1 10.505486115301418 14.868104628425684 3.0286929600809875 0 1 0
736 1 13.594338309269684 16.211400609832012 1.1295756806104982 1 0 1
1890 2 15.118018813047827 17.208468076103948 1.8327339574712742 -4 -1 1
2303 1 16.421515102596796 15.912306012729438 0.7326291559445621 1 -1 1
2334 1 18.02721784944983 14.689108515168357 3.5720998071644465 1 -1 1
1480 2 16.452674171084897 14.659839779721748 2.516096792316858 -1 -1 0
452 2 19.469840595992313 14.224387157775473 4.266167937210253 1 1 0
1786 2 19.810367082975663 15.95030139750144 1.6082075188751137 0 -1 0
135 1 0.3929839786697418 15.603562219400176 1.060516881062482 2 0 0
1155 2 17.13174820790602 16.545572749959266 4.156935371674745 1 0 1
1911 1 2.368587561265193 20.146486804402578 1.9279224753318458 0 -1 2
571 2 2.15663713520804 19.84922244121481 3.733959481634189 2 1 2
1249 1 0.7218064148447862 18.765758223102573 4.1717989617807785 0 0 1
844 1 2.5682443713498166 21.739859969128762 3.9584900375697765 0 0 0
2278 2 3.9404058965318973 18.84779036976386 2.2499955041700836 0 -1 0
1342 1 6.496171466008588 19.549889636039605 2.9716898777847396 1 -1 1
1283 2 3.0365606612598945 21.167122704970613 41.69331074839069 -1 -2 -1
453 2 6.891980906962284 16.34696068499088 2.006485865489393 -2 -1 -1
1713 1 9.001835176034994 19.415374621931498 1.7283418027082844 0 0 1
552 2 9.557632362933575 18.0738848121586 0.32825068465756924 2 0 -1
708 1 10.916278886896542 19.736543725130936 0.12979303251137003 2 0 1
955 2 11.183594017215936 18.841796465232896 2.3418251417195717 -2 -2 1
2013 1 13.66368298430271 19.229900482299826 2.0161735492480783 0 -1 1
752 2 11.178481795126103 21.44666087285988 41.001597006097334 2 1 0
780 2 14.582334763422494 19.059018660464513 3.861618950546155 -2 -1 0
2314 1 16.19809269484941 18.50761653307229 0.9976874095972742 1 0 1
988 2 17.58604487610218 17.212094274232815 0.4794129722537095 0 0 -1
1006 1 17.362745002786546 21.053844810676992 1.0374271170338176 0 0 0
904 1 14.090952636715237 22.389661381954934 2.413450127987718 2 0 1
72 2 17.467916473756866 19.420049601417748 2.7492611910519535 -1 -3 -1
1908 1 18.679243772411827 17.575077554264308 2.0103980522227127 -2 -1 1
1597 2 19.240293010752108 20.216568211741123 0.8578772632197518 1 1 1
655 2 19.087906430589836 20.54080608250838 4.723577961690862 -2 -1 1
10 1 3.540561656891236 22.910018452475466 0.3098834337182492 -1 -2 0
1621 1 5.165946457567371 22.359154520085497 3.010965352426698 0 0 0
687 2 2.1960298197616206 22.31085290195352 1.6853666341059708 -1 1 1
1429 1 0.6569930879274084 23.49581308835205 1.8227264191651722 0 0 1
62 2 21.050696985301663 24.501469595027384 3.1244886455082996 -1 -1 1
1972 2 7.007528091192809 19.944011897326458 1.3972465465600536 2 0 1
133 1 5.384885914386735 20.61841302825174 0.6384717838165569 2 0 0
1774 2 5.705097770253333 22.15254073255238 1.4197775537109645 -2 0 1
2343 1 6.517133001631859 23.07792288688957 41.844153402562746 0 -1 -1
1465 2 8.311366826873023 23.51977232813103 2.309399949725717 0 -1 1
1492 2 8.329881220164532 23.064571816137043 41.732275870526685 1 -2 -1
171 2 10.78152646662134 23.83334970123728 1.4058406540396697 0 -1 1
1539 1 9.171764879420069 24.460378317606093 0.6423029012362029 0 -1 0
1702 1 9.383363095297288 22.142338074130702 40.734899021665434 3 0 0
1305 1 11.88811253425402 22.040256495349237 1.0292809762278543 -2 -1 0
1999 2 13.661482199408752 23.132518059317107 42.19534024192465 2 1 -1
2275 2 12.83390134429658 21.646891715248803 3.4059073590628057 0 -2 0
2308 1 12.302759693500764 25.016093546232444 2.9371090522713788 0 0 1
226 1 14.931919318944317 24.33747126912702 0.4367533663282187 0 0 0
793 2 12.997445876942697 20.5855570918426 1.0864240199699575 -2 -1 -1
1131 1 15.236160698706131 24.336351551132537 4.12164962861948 2 0 0
2042 1 17.453576554541957 23.03885417435918 3.485111299098844 0 0 1
83 2 20.686163575952982 21.9024491632881 2.3292380554776275 -3 -3 0
138 1 19.273290500666715 19.98382475321491 2.911294255872869 -2 -1 1
835 1 17.840152163040802 24.05829557164158 0.4342960411309012 1 -1 0
132 1 19.527754858914022 25.072243830229006 2.2424003422909413 -2 -2 -1
1464 2 18.83406315287763 23.500701751230302 2.2175328928121676 -1 -2 0
1953 2 19.900507967331098 27.894040484274004 6.023790245887349 0 -2 1
1822 1 3.0258245719917833 27.232415094525436 1.645960582870889 1 -1 1
1340 1 3.116338780734361 24.907174900383232 3.210219297882639 -1 -1 1
582 2 5.063107769837968 24.597598231260054 41.48952890934061 -3 0 -1
792 2 6.805128114869846 26.711421719451497 3.105165754012765 2 -1 0
143 1 7.257191641559063 24.629482422778956 3.512890648032208 0 -1 -1
1140 1 4.9510649330403345 26.795396746143545 3.9147891230068703 0 1 0
1554 2 4.09592265882863 25.822960018934847 1.8975745304086447 1 0 0
2200 2 0.8460520699375578 26.81433854794959 41.03417220620635 1 0 -1
257 2 7.561108549475402 25.51393280652638 0.186310053868241 0 -1 1
703 1 5.411348801922365 25.901644549379593 0.47539801627556044 3 -1 0
802 1 7.737159882042744 26.472667264863396 1.5917091394860965 2 0 1
157 2 9.640007847460867 26.51463768345337 2.2615897018190996 3 -1 0
589 2 11.531631166639402 27.115002989741132 4.710601735969112 -1 0 -1
702 1 6.189119977118381 28.435091321743485 1.972062821286119 0 -1 0
2319 1 9.752737939373844 28.219763587623916 1.9680779963858044 1 1 1
1656 2 13.700361255695785 28.12716918054359 41.911704753129115 0 0 0
1515 1 14.493573474311022 24.20462291635173 38.8608925356579 1 0 0
1758 2 12.862765535348307 25.70766530932002 0.8596844447254057 2 0 1
733 1 14.178930628704178 27.293726307948283 1.500318501992531 0 -1 -1
559 2 16.371833892750157 27.96049823695051 4.556475559021784 2 -2 -1
876 2 16.44451052516811 24.97682501008369 2.941770942677194 -2 0 0
921 1 15.213849523060889 27.921523136121447 40.988548995087726 1 -1 -2
1446 1 16.8914389272271 26.522377896997153 0.6928450397731969 0 0 0
599 2 15.697891889550682 28.337174616700892 1.0525549119109072 0 1 1
1529 1 0.6664751221422482 26.523162427534988 3.2379106841262435 1 0 1
1436 1 19.242317744086638 27.83810558632885 1.6691803512247578 0 0 1
484 2 18.134195711955062 26.530200688540095 1.9016040414063946 0 0 0
2087 2 17.75623030800624 29.41700362610694 3.6572871208844093 -2 1 1
1995 2 1.589717777452308 27.87037239624762 4.548528434486835 1 -1 0
1647 1 1.1044374922560183 30.949021336449725 3.972767344393707 1 0 1
1573 2 4.279487594036348 28.36535730081385 2.4676920997979055 -1 1 1
1420 1 3.112137885400356 29.124650475914635 3.538680381099212 0 -1 0
1935 1 3.566736752684123 30.467546627123102 0.6674505479918574 1 -1 1
2212 1 4.770988611939017 31.235029311372497 3.3830931544321503 1 -2 1
1339 1 7.708610880217499 30.98277498205801 1.5556896157376217 -1 -2 0
2082 2 8.366306682877356 28.211051640383655 0.6536123812551987 -1 0 0
166 2 9.746307336426382 31.187487738682925 0.8751327427999575 0 -2 0
1949 1 7.221983589309854 27.99788725828884 41.39525890568719 2 0 -1
660 2 12.041138537455586 30.362175970967908 3.623920733352988 1 -1 0
49 1 10.691119965273115 31.234479661375616 2.9868806917309123 0 1 -1
1161 2 9.723106769598044 28.62588560255089 3.8881652582869144 0 -1 0
730 1 12.650470555566745 29.43877822615169 1.6395336589735157 2 -1 1
826 1 13.862586883766964 30.933710707721833 3.990869370783581 0 0 0
1672 2 14.902184916200088 0.1144557829558283 3.065814973442535 -1 0 2
104 1 16.1131602102098 29.565739016755494 2.491820699152112 2 -1 1
2038 1 14.559496024799545 0.9385737569247439 1.15319894181559 -1 1 1
1331 1 18.16662675437844 0.241334374653621 0.06010611945113683 1 -2 0
944 1 19.0320401984072 30.94819052507183 2.309146525202628 1 -2 0
1085 2 17.690731778096715 30.179138075150494 0.5062992497063562 -2 0 0
258 2 20.021560727171508 29.57313805804552 1.6727347574184346 0 -1 0
1115 1 0.8332829327561802 28.716720917837105 0.9248369032572686 0 -1 0
1789 2 2.748582585199676 30.921628686928354 3.347744985279752 3 1 1
447 1 2.828406494664199 2.840954151553814 5.509271216648059 -1 -1 0
621 1 0.9710271141332978 3.571572169246444 3.7418473177185647 -1 -1 0
6 1 6.0952864342756055 2.4536137043681476 5.759043580337796 1 -1 0
594 2 2.451707587546024 2.9785127850696247 2.7217497445866727 -1 1 0
906 1 9.673488990670815 2.362090122351927 3.223188827997898 3 2 0
1673 2 5.703891552731173 3.021530098729261 4.151772753388734 -1 1 0
1565 2 8.658357589972425 2.173900695186415 5.057827706318274 3 -1 0
1047 1 14.365773025965971 2.156431085040639 3.90503164552985 1 0 1
2372 2 10.786110938240359 2.688115836599676 6.156309972179474 1 0 1
1724 1 11.779598057942742 1.269243700265557 5.2669199954723585 1 -1 1
1102 1 12.111923203918279 3.869312655651864 6.296601621637 2 1 1
1675 2 12.878720587775922 3.118003562751984 4.364047498334606 -1 0 0
1903 1 13.809015698357193 1.5295716899122835 7.4419620635168755 2 0 0
254 2 15.993711744645795 2.437546023751073 3.770411391045467 1 -1 -1
172 2 15.222176167704204 5.2541872053282255 3.635821630449242 1 0 0
1736 1 16.383866890582926 30.708411357808945 7.41469534186611 1 0 0
167 2 17.2878680894784 30.76660087153733 5.793647114807853 0 -3 -1
691 2 20.22831071086822 0.9050805204548393 6.789096664630034 0 -1 -1
423 1 19.574753690481458 31.246165557817434 5.765956147243785 2 0 1
1834 1 0.3188846711057449 0.6252655155330511 9.959437606801067 1 0 1
1983 2 20.42040435314193 4.573908931810811 4.715338666604846 1 0 0
1384 2 1.8100828054336875 7.990094157033978 3.1786501251796997 2 1 0
1381 2 2.283953379154756 2.1566024681150657 6.996188516849022 1 -1 0
829 1 2.6923136919471706 5.684830679312046 6.7254069441581565 1 1 1
1795 2 3.1617234910291545 5.474186170283042 2.5654816866973302 2 2 2
181 2 2.5363442047102627 4.60778158393612 4.896030057765391 2 2 -1
161 2 5.719540614258808 5.673836574863464 3.645536997015877 -2 0 0
931 1 4.100228955872153 4.330284997384289 3.8634047344116755 3 0 1
57 2 4.173435043850645 6.942500845752945 6.958158589487851 -2 -1 0
629 1 9.276418883461451 3.9137738795611328 5.338973615191058 1 0 0
266 2 7.422215042265154 5.295085198491613 5.390145309277533 -1 0 0
1313 1 9.407919355930142 6.56756754793936 5.064286101532618 0 -3 1
1005 1 7.536038077200399 4.85146692969131 7.172192474865173 0 1 0
998 2 8.669483435680577 6.086392257278195 8.312914651765558 -3 2 -1
1749 1 9.751374585386849 1.1658876478380515 6.623369500091503 2 1 0
1600 2 9.74656574245651 5.255257322408517 3.756861758449936 -2 0 1
1545 1 11.622304136910746 7.011065205755704 6.161712344426934 0 1 0
1179 2 12.945667112259834 5.45002492549985 6.248909821623515 -3 1 0
1814 1 13.707492218964711 5.190114507836992 4.5044841216201625 -1 1 0
617 1 15.828494450825167 6.7988785916736445 2.225993140896749 2 2 0
1854 2 15.165453580177944 6.798537644367205 5.619173568787759 -2 0 2
1482 2 12.379224409202223 7.823693028958133 1.8427568970105452 0 0 0
1136 1 16.721958743149525 3.9610433576560626 4.282275783365954 1 0 1
2206 1 20.53905262244851 2.8520704179352077 6.241911077996811 0 2 1
2214 1 20.796457953452773 6.323881818693427 5.339537965934309 0 1 1
1770 2 16.943360690812753 4.694584170262907 6.109272074125775 2 0 0
346 1 0.1787054112598531 9.129269821451908 3.6951736472514494 4 0 0
337 1 2.947012687914869 8.370899104688721 4.811867196236747 1 0 -1
1590 2 0.1733083084562817 7.779551948486097 42.20335485638791 1 1 0
1404 1 1.303808331420152 10.46306405685343 6.595666541167528 2 1 1
928 1 4.732069372872869 10.981251915834406 6.255737882658097 3 1 -1
959 2 1.531543314930092 9.790370397741206 4.690788176840735 3 0 0
699 2 4.244331728235948 9.489301065799328 5.206772291360798 0 1 1
2110 1 5.182100021366042 9.87263297411109 3.542264340888967 1 0 1
424 1 5.412272298148807 5.710300097097716 5.793822078203762 0 -1 0
764 2 6.584423209515921 9.586623341736354 2.4988720792725836 1 -2 0
2201 1 8.682702696743208 9.50779953922062 2.4313134648935555 -1 0 0
387 2 8.694488611666635 8.06745364503657 4.181378860554785 0 0 1
225 1 7.572416443866777 9.025018735519494 5.762757827959574 2 -1 0
1965 2 10.575863330991515 8.318408614665072 6.244420801917477 -3 -1 1
1041 1 12.747576335015966 9.124888148367125 3.108745005150466 -2 1 0
18 1 10.455507955188573 9.264211621497516 4.701224464458204 2 -1 0
978 2 13.327496795418009 11.179956984831676 6.2793418742744525 -3 -1 0
1660 2 13.625803775764302 13.320820489636185 5.003561060232005 3 2 0
1317 1 16.947030978676253 7.159853654991744 5.404912151683901 -1 -1 0
2090 2 12.398521799220761 7.645723170777853 4.776952138125563 -2 -1 0
2353 2 19.245130306591477 6.9882691383743065 6.125255938219361 -1 0 0
989 2 20.902822284501635 7.746620848543712 4.593286744542397 -2 0 1
1698 2 19.545269942953606 10.081019353546246 7.216634479400091 -1 0 1
1138 1 19.68775574910217 8.922292216730977 5.630727679062722 -1 1 -1
1551 2 0.4225602259626523 12.074368004734476 5.64438616861702 0 -1 1
833 1 2.3324294109819705 11.153556245154736 3.963486209008507 -1 -1 1
1150 1 19.566236828566712 11.800223451525257 6.56176352007475 1 1 0
1864 2 3.0575525300849997 10.688507471045952 1.8882358449582965 1 0 1
261 2 0.7406707037165617 10.580464658234146 8.644573627386187 -1 0 0
44 1 1.3147963816156734 13.663611849124496 6.529461646652148 3 -2 1
1066 2 8.525340582473726 10.929849073927825 3.4360692593001274 -1 0 0
1308 1 4.424223579771061 13.356248761264617 4.215385602275056 1 0 1
1258 2 2.823471609161022 14.389456994019763 5.581736089120815 2 0 -1
232 1 6.7334453000331544 12.216644031427629 4.94390784066309 -1 0 0
664 2 5.850693659700497 13.894638175973592 5.549857059305463 1 -2 1
939 1 9.187748072487288 12.288333865451454 4.446996712129491 -2 0 0
55 2 8.463622710171576 13.428859275225262 5.285836505172157 -3 -2 1
674 2 10.899675858602546 11.433235288838901 5.728230816661152 0 0 1
2187 2 10.469807021187881 13.227903957325049 3.6137049909999805 2 1 1
2340 1 13.828087091547573 11.485102891575941 4.395543733054639 1 1 2
526 1 11.163279696766647 12.966414313677339 5.327195284720958 0 0 0
2009 1 17.435182935331447 12.336939499134617 4.956533745760903 -1 -1 0
2007 1 16.86657981317955 13.742162180495896 7.624835846174883 0 -1 0
344 1 15.374527644202418 13.980717908064284 4.61996907912057 1 0 0
394 2 15.903027966648592 12.394992862342091 3.7959600150025015 -1 -1 0
831 1 17.124355592804697 15.781852217084996 5.9704024307103 -1 0 1
170 2 17.069159744124274 12.001885094308733 7.2721303749265065 1 -1 -1
451 2 17.607842938456848 15.036866875615774 8.42044923313776 0 -2 0
1121 1 18.91289933456661 14.22005872722565 9.37535859378114 0 0 1
651 2 2.0468928861901405 12.857414706109717 7.902723385743929 0 -1 -1
515 1 2.039172334662948 16.40708002374751 5.263667744088926 4 0 0
777 2 0.6477696807765035 15.071578570449304 5.54872202033374 1 -1 1
4 1 5.249382486496908 16.917036643746187 4.66182469577668 1 0 0
1454 2 6.907041189003465 16.443999194281798 5.048785240302925 1 0 0
303 1 7.583492201607232 14.784060030458315 5.521143230589791 0 0 1
1722 1 4.2654251707520805 15.000388951329331 6.4598579310509265 0 1 0
1455 2 8.926365612604114 16.108887009406693 6.188790921555894 -4 0 0
1680 2 13.74154246136918 15.119413623536369 3.319319649205066 -2 -1 0
1203 1 10.525966014078906 15.923089698360112 6.196892291380732 1 -1 0
854 2 11.8286891888647 16.311214120771844 5.121198175516552 0 1 1
715 1 13.465790119280099 15.287915804079239 5.159479636565157 1 -1 0
457 2 15.225315214529207 15.375263493765367 5.75045292068434 -1 1 0
670 2 17.345631461723187 14.155105487306548 5.646055512176121 -1 1 1
2257 2 14.133296304019668 16.67417519631482 8.839739832347519 1 1 1
38 1 14.672397181784671 15.84346743566081 7.520315932921629 3 -1 0
1944 1 20.580317771986472 16.365163342058473 3.7705304735185163 1 0 0
2357 2 19.040556779718024 16.767772672258104 5.601931917410232 0 1 0
1 1 19.587706282152038 14.76282131222989 6.000802543394533 0 0 0
2008 1 18.107948908504266 18.565001907419646 4.836939998444967 0 0 1
2288 2 16.962626804063742 19.529105444195586 5.81848767877086 -5 -1 2
1703 1 3.64794701481303 19.217988741687105 5.194562706374682 2 0 0
377 2 20.217932884226208 18.365292206295695 2.9507936150604066 3 0 2
1895 2 0.07943901583198054 19.017125913779157 5.693260674013301 1 -1 2
735 1 20.610850919047312 20.791224008274654 5.896954426428822 2 0 -1
1768 2 3.3439446601834755 15.797320553693169 8.405151233514145 -1 1 0
561 2 4.863762218120367 18.124280001634148 6.041659687004845 -2 1 -1
511 1 4.151739644090097 18.112879000197992 7.846321702374392 0 0 0
620 1 7.806334047686294 16.82372105067254 3.4714822704785657 0 0 -1
1078 2 8.215297575503717 18.790597130572504 3.6214720100996494 0 -1 0
1194 2 9.115427247400637 20.620538074969613 0.11267738130600667 1 -1 0
433 1 8.451795840844424 20.432501477647314 4.770805616454 1 -1 0
2230 1 10.666433266776982 19.908718355660863 6.63344519720238 1 1 1
898 2 11.035576747948934 19.189125263011707 4.862866005339162 -1 0 -1
2349 1 10.976860613483053 20.40603756992216 3.228219657812501 -1 0 0
1884 2 13.181440486149604 21.137047472177347 6.418039257650843 0 0 0
2127 1 13.29789684602314 19.13948442011786 5.4379048719947916 2 0 1
1930 1 15.526315301404372 16.32927839841917 3.2337948992594097 0 0 1
2162 2 14.09218804786882 18.584130949283953 6.837929121839304 0 -1 0
701 1 15.848370755159962 18.099173284825113 6.439112575267147 0 0 0
2284 2 16.163879221728504 16.7154787260333 7.62414745960426 -3 0 2
811 1 16.189919187241905 20.29344549836989 3.718644533371548 -2 0 1
1697 2 0.08428384307973497 22.75486987881408 6.195726645002067 -1 1 0
1312 1 4.541852564969429 23.85729413843394 5.334923004465929 3 -1 1
2100 2 3.474733211514827 25.778521309851563 4.626123781545144 -1 -1 0
1887 2 2.0302008408795102 25.5744907127902 7.583836720022003 -1 2 0
1159 2 4.0287865067444075 20.843973705591118 5.317735178184728 -1 1 0
215 1 4.640922352079528 20.862110954837714 7.337189498134632 0 0 0
2195 2 7.05214122238503 21.193078180583363 3.7224761564135314 -1 0 0
1341 1 7.65405061672072 21.932713798565945 1.758533375186511 -1 1 1
641 1 6.982769111269545 22.402965387890593 5.20351187341239 -1 1 0
901 1 9.852112836410159 23.49369655106669 3.216342120253822 -2 0 0
994 2 9.809754539253731 21.755246397609195 3.600772769073157 1 -1 1
992 2 11.27328811218199 24.07414016093609 4.262909306156071 1 2 0
1196 2 12.812198339656298 23.663003126898243 6.67875519419019 -1 -1 -1
1628 1 12.240363970888609 22.73442759518484 5.0221227116412965 -1 0 1
1034 1 14.871973051171997 25.315269422628756 6.660265991978739 1 -2 0
347 1 11.701182601874967 25.39948400083783 5.370433357233735 -1 -1 0
2130 1 17.07819069882037 21.3423246235913 6.109802952823126 1 0 1
1191 2 13.912847711105861 24.330954998299166 2.9922761852629707 1 0 1
2073 2 3.523006223916097 23.186498362098018 3.709419035089396 -1 0 0
280 2 16.040391390484782 21.872701385071476 4.50894473263179 -1 0 -1
2031 1 20.072954378483296 22.86141922611357 3.6757644466104074 0 -2 1
487 2 20.632001435009908 22.546698154232537 9.607261187265662 2 0 1
1932 1 2.337556183309906 26.82999641838368 5.925075836280849 1 -1 2
1153 2 2.1867885436654153 28.5641177018881 7.030742071923872 0 -1 1
2044 1 20.36669850296417 26.226482155003275 8.045141339900576 -1 0 1
2373 2 5.976408299510577 23.581588736816023 3.9214104580113234 -1 1 1
1732 1 7.080920827789313 26.761904925311324 5.451234199406155 -1 -1 0
1933 1 9.751144993264232 26.68063740667045 4.2170910023900925 3 0 1
1371 2 8.395981806052827 25.84259708900266 5.297302276390446 -2 -2 1
2392 2 13.314185478228582 28.351119046852773 2.83571101446452 0 1 1
1403 1 11.530293762708054 28.525218310165368 3.5778559875757585 1 -1 0
352 2 14.095880683561882 25.680814943138227 5.101685714607852 2 2 0
1154 2 16.07219715791443 23.878659267815177 6.03083637020814 -1 0 -1
1215 1 17.973262310854814 24.39061600206508 6.134515261310255 0 -2 1
1613 1 14.172902679991843 27.520274704679796 4.591283978923754 -3 1 1
1280 2 13.354034323614217 26.51263217220467 7.684253801634977 0 0 -1
1488 2 18.18507935709882 26.148095305061968 5.497880363568527 -1 -1 1
21 1 19.740973272010766 25.867227492726876 5.027922902322555 0 -2 -1
1968 2 20.07894457626512 26.869445595608603 3.1160349077570513 0 -1 1
1282 2 18.72488162886694 23.837964582937488 4.6473985971303415 1 -1 0
1631 1 17.227665779965005 26.553900632508654 3.5188562705876225 0 -1 1
678 2 21.07033647293762 25.869759636008347 6.099090551762036 -2 -1 -1
2323 1 17.569111307527933 26.747094448291595 6.799634960308269 0 -2 0
863 2 5.499616796859077 4.084784078660757 6.477911121324619 -1 -1 -1
2234 1 0.35403649763441 28.7327979667803 6.046876139882108 2 -1 2
853 2 1.4318300047480366 30.620865834049063 6.1984237292228785 -3 -1 -1
2311 1 3.130479176225135 30.571467909576477 6.091312452789695 -1 0 1
2121 1 4.112625778280665 28.65069032785822 7.45276974767201 1 -1 2
1855 2 4.509764412530445 28.304017231893607 5.021358112056846 0 -2 1
1508 1 6.200505743990278 29.63818625407101 4.933801863337737 0 0 0
1190 2 7.187800248302688 28.415366475887947 5.931854077689154 1 -1 0
785 2 6.322038837973746 30.301739268347482 2.286782009803856 3 -2 1
124 1 8.591751605978008 29.351290228652406 5.433047810156915 2 -1 0
892 2 7.333541797096248 30.89258749499269 5.215350191125828 -2 2 1
332 1 8.285597926883172 0.5770786241813589 4.188875438486085 -3 0 1
496 2 13.291309743745424 31.478747027760566 5.546206174003817 0 0 0
2174 2 10.517630302028808 31.633414069519187 5.142407587642436 -1 -1 1
1626 1 13.17651527634345 30.434242413833616 7.914129178767319 -3 0 1
1980 2 11.62413782544183 29.279181756680018 7.509333575515121 1 -1 -1
1915 1 16.86129438374264 0.7146630276664584 3.5129020131425426 0 1 1
479 2 12.86784507332649 29.064778401015293 5.608714951634128 -3 -1 1
2204 1 19.74654250332333 28.618554625222867 4.12325902157807 1 0 1
1489 2 20.45097963611328 30.87183208873893 4.306396612656437 -1 -1 1
803 1 1.0699959229742355 0.8695877464994285 6.29322073779089 1 -1 0
1351 2 18.51483442373606 27.326531999693234 8.139598611549232 -1 0 0
1443 1 17.209508961502905 29.12319994883916 5.245441017776554 -1 -1 -1
1149 1 3.0626201400951967 1.8843945005059448 8.562473291878199 0 1 -1
1579 2 1.0144064927155936 30.365437473170022 9.88442213269732 -3 -1 0
395 2 3.602483548273493 4.898577112962721 8.26337628207866 1 1 0
1232 1 5.29289430551053 0.17228795636330124 7.734250386063797 -1 0 1
1868 2 4.715674551749561 31.187877104631497 5.166754574156092 -1 -3 1
1510 1 4.927891817663649 3.4799775001193747 8.313496414823206 0 0 1
2331 1 10.238257797257278 30.193667096870296 7.945127785424868 0 -1 1
1747 1 7.552130011201448 31.239128671942748 7.158865757700283 1 -1 1
80 2 6.383556796106605 30.187580615413502 8.30303284985914 -1 -2 -1
182 2 11.274064489432055 30.8933067426206 9.418065462748142 2 -3 0
2054 2 8.94797225881835 0.6612551644928241 8.171159560801184 0 1 0
2113 1 7.203674628742325 1.9122588195901578 8.607846409994345 1 0 1