LAMMPS (29 Sep 2021 - Update 2)
OMP_NUM_THREADS environment is not set. Defaulting to 1 thread. (src/comm.cpp:98)
  using 1 OpenMP thread(s) per MPI task
# lmp -in therm.lammps
# Muller-Plathe method via fix thermal_conductivity

# conda activate nequip_cuda10.1
# export CUDA_VISIBLE_DEVICES=2
#   lmp -in run_therm_1500
# nohup lmp -in run_therm_1500 > therm_1500_job.out #job =8154
# 1) Initialization
units metal
dimension 3
newton off on
atom_style atomic
boundary p p p



# 2) System definition
read_data	FLi_1300_100_startpoint.lammps
Reading data file ...
  orthogonal box = (0.0000000 0.0000000 0.0000000) to (9.0565509 9.0565509 9.0565509)
  1 by 1 by 1 MPI processor grid
WARNING: Atom style in data file differs from currently defined atom style (src/read_data.cpp:516)
  reading atoms ...
  100 atoms
  read_data CPU = 0.001 seconds
change_box all x final 0 10.803073506235606 y final 0 10.803073506235606 z final 0 10.803073506235606 remap
Changing box ...
  orthogonal box = (0.0000000 0.0000000 0.0000000) to (10.803074 9.0565509 9.0565509)
  orthogonal box = (0.0000000 0.0000000 0.0000000) to (10.803074 10.803074 9.0565509)
  orthogonal box = (0.0000000 0.0000000 0.0000000) to (10.803074 10.803074 10.803074)

#read_data	tttt.lammps
#read_data	test.lammps

# 3) Simulation settings
pair_style	nequip
pair_coeff	* * FLiNa_f_pyt10.2 F Li Na #Li F Na

# 4) NPT:
replicate 2 3 4
Replicating atoms ...
  orthogonal box = (0.0000000 0.0000000 0.0000000) to (21.606147 32.409221 43.212294)
  1 by 1 by 1 MPI processor grid
  2400 atoms
  replicate CPU = 0.001 seconds

# thermo 1
# minimize 1.00e-9 1.0e-9 1000000 10000000
# run 100


timestep .001 # fetmoseconds
variable Tsim equal 1500 # Kelvin
velocity all create ${Tsim} 12335
velocity all create 1500 12335
# dump            dump1 all custom 1 traj_${Tsim}.lammpstrj id type xu yu zu
# dump_modify     dump1 sort id


#-------------------------------------------
# 1st equilibration run
#fix 1 all nve
fix 1 all nvt temp ${Tsim} ${Tsim} $(100.0*dt)
fix 1 all nvt temp 1500 ${Tsim} $(100.0*dt)
fix 1 all nvt temp 1500 1500 $(100.0*dt)
fix 1 all nvt temp 1500 1500 0.10000000000000000555
thermo          100
run 50000
Neighbor list info ...
  update every 1 steps, delay 10 steps, check yes
  max neighbors/atom: 2000, page size: 100000
  master list distance cutoff = 7
  ghost atom cutoff = 7
  binsize = 3.5, bins = 7 10 13
  1 neighbor lists, perpetual/occasional/extra = 1 0 0
  (1) pair nequip, perpetual
      attributes: full, newton off
      pair build: full/bin/atomonly
      stencil: full/bin/3d
      bin: standard
Per MPI rank memory allocation (min/avg/max) = 3.989 | 3.989 | 3.989 Mbytes
Step Temp E_pair E_mol TotEng Press 
       0         1500   -11006.352            0   -10541.209    16419.201 
     100    1532.7521   -11009.783            0   -10534.484    16777.709 
     200    1544.7797   -11026.773            0   -10547.745    16909.366 
     300    1508.3055    -11035.28            0   -10567.562    16510.113 
     400    1492.8221   -11037.892            0   -10574.975     16340.63 
     500    1478.8803   -11031.939            0   -10573.346    16188.022 
     600    1492.1837   -11029.149            0   -10566.431    16333.643 
     700    1524.4811   -11033.968            0   -10561.234    16687.174 
     800    1506.2431   -11019.376            0   -10552.297    16487.538 
     900    1547.9564   -11028.062            0   -10548.049    16944.137 
    1000    1507.0539   -11033.729            0   -10566.399    16496.414 
    1100    1494.5738   -11042.043            0   -10578.583    16359.805 
    1200    1465.4353   -11034.025            0   -10579.601    16040.851 
    1300    1498.6576   -11032.712            0   -10567.986    16404.506 
    1400    1528.6704   -11029.576            0   -10555.543    16733.031 
    1500    1508.4601   -11031.093            0   -10563.327    16511.806 
    1600    1491.8052   -11034.881            0   -10572.279    16329.499 
    1700    1521.9337   -11045.353            0   -10573.408     16659.29 
    1800    1470.6401   -11036.447            0   -10580.409    16097.824 
    1900    1478.2564   -11042.063            0   -10583.663    16181.192 
    2000    1499.3336   -11032.547            0   -10567.611    16411.906 
    2100    1499.5195   -11020.868            0   -10555.875    16413.941 
    2200    1537.0862   -11037.335            0   -10560.692    16825.151 
    2300    1520.4396   -11045.079            0   -10573.598    16642.935 
    2400    1489.3252   -11036.973            0    -10575.14    16302.353 
    2500    1500.5432   -11034.578            0   -10569.267    16425.146 
    2600    1497.6287   -11030.889            0   -10566.481    16393.244 
    2700    1524.8525   -11038.156            0   -10565.307     16691.24 
    2800    1486.0786   -11033.864            0   -10573.039    16266.815 
    2900    1434.3099   -11036.488            0   -10591.716    15700.148 
    3000    1478.5256   -11045.021            0   -10586.538    16184.138 
    3100    1488.3056   -11035.347            0    -10573.83    16291.192 
    3200    1505.4434   -11034.855            0   -10568.025    16478.785 
    3300    1530.3422   -11041.319            0   -10566.768     16751.33 
    3400    1507.1459   -11037.637            0   -10570.278     16497.42 
    3500    1481.4335   -11035.632            0   -10576.247    16215.969 
    3600    1482.0707    -11037.83            0   -10578.247    16222.944 
    3700     1510.062   -11035.689            0   -10567.427     16529.34 
    3800    1543.9978   -11037.776            0    -10558.99    16900.806 
    3900    1494.8096   -11026.935            0   -10563.401    16362.386 
    4000    1457.3052   -11033.131            0   -10581.228    15951.857 
    4100    1477.2609   -11044.482            0   -10586.391    16170.295 
    4200    1483.9778   -11037.519            0   -10577.344    16243.819 
    4300    1516.1698   -11035.383            0   -10565.226    16596.198 
    4400     1505.748   -11028.575            0    -10561.65    16482.119 
    4500    1486.1608   -11033.116            0   -10572.265    16267.715 
    4600    1468.2677   -11041.618            0   -10586.316    16071.855 
    4700    1484.3175   -11039.791            0   -10579.511    16247.538 
    4800    1487.6658   -11028.091            0   -10566.773    16284.189 
    4900    1502.2152   -11024.385            0   -10558.555    16443.448 
    5000    1536.2996   -11029.641            0   -10553.242    16816.541 
    5100    1497.0739    -11035.24            0   -10571.005    16387.171 
    5200    1492.2547   -11043.801            0    -10581.06    16334.419 
    5300     1489.734   -11042.421            0   -10580.462    16306.828 
    5400    1484.7587   -11033.395            0   -10572.978    16252.367 
    5500    1538.7795   -11034.675            0   -10557.507    16843.686 
    5600    1528.8948   -11034.135            0   -10560.032    16735.487 
    5700    1470.1463   -11026.627            0   -10570.742    16092.418 
    5800    1465.9345   -11029.915            0   -10575.336    16046.316 
    5900    1501.0473   -11038.559            0   -10573.091    16430.664 
    6000    1500.8013   -11037.795            0   -10572.404    16427.972 
    6100    1503.8907   -11033.479            0    -10567.13    16461.788 
    6200    1490.1857   -11027.057            0   -10564.957    16311.772 
    6300    1477.2248   -11024.608            0   -10566.528      16169.9 
    6400    1525.3898   -11030.948            0   -10557.932    16697.121 
    6500    1526.1762   -11017.637            0   -10544.377    16705.729 
    6600    1528.2686   -11018.787            0   -10544.879    16728.632 
    6700    1501.4086    -11030.91            0   -10565.331     16434.62 
    6800    1445.9204   -11018.883            0    -10570.51    15827.238 
    6900    1523.2748   -11038.357            0   -10565.997    16673.969 
    7000    1537.0983   -11035.866            0    -10559.22    16825.283 
    7100    1521.4737   -11024.318            0   -10552.517    16654.255 
    7200    1533.8698   -11028.688            0   -10553.043    16789.944 
    7300    1470.8254   -11027.637            0   -10571.541    16099.851 
    7400    1457.5665   -11031.785            0   -10579.801    15954.718 
    7500    1531.1869   -11052.052            0   -10577.238    16760.576 
    7600    1507.8422   -11043.763            0   -10576.188    16505.042 
    7700    1515.4005   -11036.732            0   -10566.814    16587.777 
    7800    1513.0655   -11027.962            0   -10558.768    16562.217 
    7900    1524.3615   -11035.837            0    -10563.14    16685.865 
    8000    1524.4105   -11051.137            0   -10578.425    16686.401 
    8100    1477.2951   -11043.586            0   -10585.484     16170.67 
    8200    1519.7475   -11045.064            0   -10573.798    16635.359 
    8300    1527.2175    -11029.89            0   -10556.307    16717.127 
    8400    1474.1548   -11018.014            0   -10560.886    16136.295 
    8500    1506.7897   -11032.683            0   -10565.435    16493.521 
    8600    1468.1988   -11031.664            0   -10576.383    16071.101 
    8700    1481.7298   -11037.896            0   -10578.418    16219.213 
    8800    1544.7077   -11039.106            0     -10560.1    16908.578 
    8900    1528.6678   -11025.695            0   -10551.663    16733.002 
    9000    1512.0127   -11026.475            0   -10557.607    16550.693 
    9100    1446.9034   -11029.614            0   -10580.937    15837.999 
    9200    1485.9162   -11041.404            0   -10580.629    16265.037 
    9300    1500.8237   -11036.561            0   -10571.162    16428.217 
    9400    1518.0327   -11035.479            0   -10564.745    16616.589 
    9500    1538.1187   -11030.769            0   -10553.806    16836.453 
    9600    1537.1082   -11020.175            0   -10543.525    16825.392 
    9700    1537.1347    -11028.99            0   -10552.332    16825.682 
    9800    1499.3667   -11035.479            0   -10570.533    16412.268 
    9900    1469.2801   -11028.828            0   -10573.212    16082.937 
   10000    1537.1389    -11039.46            0   -10562.801    16825.728 
   10100      1499.05   -11026.325            0   -10561.477    16408.802 
   10200    1501.0343   -11044.896            0   -10579.432    16430.522 
   10300     1443.619   -11040.027            0   -10592.368    15802.046 
   10400    1483.2736   -11040.184            0   -10580.228    16236.111 
   10500     1535.467   -11045.139            0   -10568.998    16807.427 
   10600    1499.6632   -11029.817            0   -10564.779    16415.513 
   10700    1474.1274   -11024.295            0   -10567.175    16135.995 
   10800    1472.6499   -11038.609            0   -10581.948    16119.823 
   10900    1453.8812   -11035.384            0   -10584.542    15914.378 
   11000    1493.6679    -11030.34            0   -10567.161    16349.888 
   11100     1501.455   -11023.667            0   -10558.073    16435.128 
   11200    1495.6311   -11025.525            0   -10561.738    16371.378 
   11300    1489.8624   -11030.263            0   -10568.264    16308.233 
   11400    1506.2428    -11038.01            0   -10570.931    16487.535 
   11500    1502.9392   -11038.318            0   -10572.264    16451.373 
   11600    1474.4334   -11026.894            0   -10569.679    16139.345 
   11700    1525.8003   -11033.869            0   -10560.726    16701.615 
   11800    1518.1885   -11033.652            0    -10562.87    16618.295 
   11900    1479.9835   -11041.354            0   -10582.418    16200.098 
   12000    1504.0094   -11054.889            0   -10588.503    16463.088 
   12100    1495.5736    -11044.15            0    -10580.38    16370.749 
   12200     1494.583    -11039.98            0   -10576.518    16359.906 
   12300    1500.0613   -11039.983            0   -10574.822    16419.872 
   12400    1494.3716   -11036.544            0   -10573.147    16357.591 
   12500    1504.9786   -11032.404            0   -10565.718    16473.697 
   12600    1490.9796   -11016.241            0   -10553.896    16320.462 
   12700    1547.7701   -11031.336            0    -10551.38    16942.099 
   12800    1515.7767   -11040.958            0   -10570.923    16591.895 
   12900    1514.8785   -11050.774            0   -10581.018    16582.063 
   13000    1485.4793   -11040.708            0   -10580.068    16260.255 
   13100    1518.8443   -11039.339            0   -10568.353    16625.473 
   13200    1500.4445   -11022.886            0   -10557.605    16424.066 
   13300    1502.1017   -11017.844            0   -10552.049    16442.207 
   13400     1499.555   -11032.804            0   -10567.799     16414.33 
   13500    1455.0362   -11030.902            0   -10579.703    15927.021 
   13600    1487.0752   -11040.488            0   -10579.354    16277.724 
   13700    1511.9503   -11038.647            0   -10569.799     16550.01 
   13800    1530.3434   -11027.115            0   -10552.563    16751.343 
   13900    1522.6217   -11029.268            0    -10557.11    16666.821 
   14000    1484.3677   -11029.479            0   -10569.183    16248.088 
   14100    1526.8428   -11045.409            0   -10571.943    16713.026 
   14200    1505.0549   -11040.607            0   -10573.897    16474.532 
   14300    1483.3625   -11037.562            0   -10577.579    16237.085 
   14400    1477.1425   -11035.746            0   -10577.691        16169 
   14500    1505.9187   -11032.997            0   -10566.019    16483.988 
   14600    1508.5874   -11026.578            0   -10558.773      16513.2 
   14700    1499.8804   -11024.669            0   -10559.563    16417.892 
   14800     1523.699   -11037.237            0   -10564.746    16678.613 
   14900    1464.3049   -11035.463            0   -10581.389    16028.477 
   15000     1499.812   -11048.378            0   -10583.294    16417.143 
   15100    1503.6561   -11042.214            0   -10575.937    16459.221 
   15200    1541.1048   -11035.024            0   -10557.135    16869.139 
   15300    1523.3497   -11027.887            0   -10555.503    16674.789 
   15400    1505.7105   -11031.596            0   -10564.682    16481.709 
   15500     1488.596   -11031.817            0   -10570.211    16294.371 
   15600    1503.7516   -11038.648            0   -10572.342    16460.266 
   15700    1491.8997   -11034.082            0   -10571.451    16330.533 
   15800    1502.5592   -11031.089            0   -10565.153    16447.214 
   15900    1468.9059   -11017.503            0   -10562.002     16078.84 
   16000    1499.0931   -11025.209            0   -10560.348    16409.274 
   16100    1485.0225   -11027.698            0     -10567.2    16255.255 
   16200    1481.7543   -11033.493            0   -10574.008    16219.481 
   16300    1486.7712   -11037.669            0   -10576.628    16274.397 
   16400    1516.4594   -11038.621            0   -10568.374    16599.368 
   16500    1527.1151    -11030.94            0    -10557.39    16716.006 
   16600    1537.8534   -11035.709            0   -10558.828    16833.549 
   16700    1491.6903   -11041.649            0   -10579.084    16328.242 
   16800    1516.8399   -11051.687            0   -10581.322    16603.532 
   16900    1502.0839   -11039.891            0   -10574.102    16442.011 
   17000    1489.3203   -11023.281            0    -10561.45    16302.299 
   17100    1522.0694   -11031.654            0   -10559.668    16660.775 
   17200    1513.4006   -11033.474            0   -10564.176    16565.885 
   17300    1540.6384   -11043.049            0   -10565.304    16864.033 
   17400    1454.3835   -11022.125            0   -10571.128    15919.877 
   17500    1507.1776   -11035.416            0   -10568.048    16497.768 
   17600    1534.4735   -11039.231            0   -10563.399    16796.552 
   17700    1544.8498   -11045.017            0   -10565.966    16910.133 
   17800    1499.8007   -11045.644            0   -10580.563    16417.019 
   17900    1471.2844   -11046.047            0   -10589.809    16104.876 
   18000    1481.3006   -11044.663            0   -10585.319    16214.515 
   18100    1540.8903   -11043.896            0   -10566.074    16866.791 
   18200    1520.3743    -11037.04            0   -10565.579    16642.221 
   18300    1512.1902   -11037.634            0   -10568.711    16552.636 
   18400    1459.1106   -11029.887            0   -10577.424    15971.619 
   18500    1440.4401   -11028.002            0   -10581.329     15767.25 
   18600    1516.1084   -11033.088            0    -10562.95    16595.525 
   18700    1544.7236   -11034.029            0   -10555.018    16908.751 
   18800    1512.1708   -11031.267            0    -10562.35    16552.424 
   18900    1494.9133   -11034.812            0   -10571.247    16363.521 
   19000    1502.8721   -11040.546            0   -10574.513    16450.639 
   19100    1499.4405   -11037.654            0   -10572.685    16413.076 
   19200    1500.1473   -11037.946            0   -10572.758    16420.813 
   19300    1524.5604   -11045.499            0    -10572.74    16688.042 
   19400    1470.5684    -11027.37            0   -10571.354    16097.039 
   19500    1504.2687   -11024.087            0   -10557.621    16465.926 
   19600    1560.6632   -11033.561            0   -10549.607    17083.229 
   19700    1492.1632   -11030.065            0   -10567.353    16333.418 
   19800    1460.1858   -11024.802            0   -10572.005    15983.389 
   19900    1499.8028   -11035.863            0   -10570.782    16417.042 
   20000    1507.8287   -11038.241            0   -10570.671    16504.895 
   20100    1505.9287   -11034.893            0   -10567.911    16484.097 
   20200    1498.6592   -11036.183            0   -10571.456    16404.524 
   20300    1476.5438   -11040.609            0    -10582.74    16162.446 
   20400    1453.0928   -11036.652            0   -10586.055    15905.748 
   20500    1520.9569   -11044.614            0   -10572.973    16648.597 
   20600    1478.2158   -11017.063            0   -10558.676    16180.748 
   20700    1509.7474   -11023.064            0   -10554.899    16525.897 
   20800    1531.3645   -11035.684            0   -10560.815    16762.521 
   20900    1466.1349   -11034.267            0   -10579.625    16048.509 
   21000     1460.147   -11031.507            0   -10578.722    15982.964 
   21100     1496.651   -11032.006            0   -10567.902    16382.542 
   21200    1508.9612   -11025.587            0   -10557.665    16517.291 
   21300     1493.608   -11018.873            0   -10555.713    16349.233 
   21400    1485.5726   -11028.278            0    -10567.61    16261.277 
   21500    1497.0648   -11047.627            0   -10583.395    16387.071 
   21600    1461.3663   -11036.788            0   -10583.626    15996.311 
   21700    1491.3647   -11034.476            0   -10572.011    16324.678 
   21800    1509.6623   -11037.314            0   -10569.176    16524.966 
   21900    1485.3004   -11030.965            0    -10570.38    16258.297 
   22000    1506.7259   -11030.972            0   -10563.743    16492.824 
   22100    1505.7717   -11022.142            0   -10555.209    16482.378 
   22200    1484.6602   -11027.082            0   -10566.696    16251.289 
   22300     1433.001   -11027.142            0   -10582.775    15685.821 
   22400    1502.1378   -11045.821            0   -10580.016    16442.601 
   22500    1490.0785   -11036.391            0   -10574.325    16310.598 
   22600    1505.5551    -11018.65            0   -10551.785    16480.007 
   22700    1527.4471   -11019.923            0   -10546.269     16719.64 
   22800    1511.8114   -11027.562            0   -10558.756    16548.489 
   22900    1485.0293   -11030.761            0    -10570.26    16255.329 
   23000    1500.8377   -11037.773            0   -10572.371     16428.37 
   23100    1509.3103   -11036.115            0   -10568.086    16521.113 
   23200    1533.6271   -11025.513            0   -10549.942    16787.287 
   23300    1536.0001   -11023.723            0   -10547.417    16813.262 
   23400    1503.8373   -11032.239            0   -10565.907    16461.205 
   23500    1489.4857   -11034.229            0   -10572.346     16304.11 
   23600     1525.109   -11046.423            0   -10573.494    16694.047 
   23700    1459.0602   -11027.829            0   -10575.382    15971.068 
   23800    1514.5156   -11034.143            0   -10564.499     16578.09 
   23900      1520.29   -11022.135            0     -10550.7    16641.298 
   24000    1536.2216   -11032.652            0   -10556.278    16815.687 
   24100    1502.9015   -11036.319            0   -10570.277     16450.96 
   24200    1511.4698   -11044.488            0   -10575.789    16544.751 
   24300    1497.4358   -11039.062            0   -10574.714    16391.133 
   24400    1502.1168   -11036.916            0   -10571.117    16442.371 
   24500    1504.6825   -11035.447            0   -10568.853    16470.456 
   24600    1506.3046   -11034.011            0   -10566.913    16488.211 
   24700    1539.4654   -11044.614            0   -10567.234    16851.195 
   24800    1472.8212   -11033.574            0    -10576.86    16121.698 
   24900    1499.1382   -11041.079            0   -10576.204    16409.767 
   25000    1543.9684   -11044.922            0   -10566.145    16900.484 
   25100    1542.9855   -11032.728            0   -10554.255    16889.726 
   25200     1511.391   -11028.091            0   -10559.416    16543.888 
   25300    1491.2796   -11042.259            0    -10579.82    16323.746 
   25400    1487.2868   -11039.115            0   -10577.915     16280.04 
   25500    1488.5059   -11033.667            0   -10572.089    16293.385 
   25600    1537.0454    -11041.55            0    -10564.92    16824.704 
   25700    1485.8551   -11031.939            0   -10571.183    16264.368 
   25800     1488.411   -11040.718            0   -10579.169    16292.346 
   25900    1490.8521   -11038.861            0   -10576.555    16319.066 
   26000    1492.0266    -11028.73            0    -10566.06    16331.923 
   26100    1507.4214   -11019.063            0   -10551.619    16500.437 
   26200    1535.9622   -11027.631            0   -10551.337    16812.848 
   26300    1473.4252   -11020.423            0   -10563.521    16128.309 
   26400    1500.3034   -11033.153            0   -10567.917    16422.522 
   26500    1460.9685    -11027.64            0     -10574.6    15991.956 
   26600    1475.2972   -11035.623            0   -10578.141    16148.801 
   26700    1500.2825   -11030.973            0   -10565.742    16422.293 
   26800     1523.266   -11023.879            0   -10551.522    16673.873 
   26900    1521.0097   -11025.786            0   -10554.129    16649.175 
   27000    1520.9325   -11037.209            0   -10565.575    16648.331 
   27100    1486.8726    -11030.51            0   -10569.438    16275.507 
   27200    1493.1532    -11027.75            0   -10564.731    16344.255 
   27300    1490.6187   -11025.361            0   -10563.128    16316.512 
   27400    1464.4658   -11036.743            0    -10582.62    16030.238 
   27500    1480.5124   -11046.005            0   -10586.905    16205.887 
   27600    1457.4531   -11028.604            0   -10576.655    15953.477 
   27700    1515.5399    -11037.66            0   -10567.699    16589.303 
   27800    1527.3889   -11041.493            0   -10567.857    16719.004 
   27900    1506.7421   -11040.753            0    -10573.52    16493.001 
   28000      1507.69   -11040.527            0       -10573    16503.377 
   28100    1513.0446    -11027.19            0   -10558.003    16561.989 
   28200    1548.0412   -11024.145            0   -10544.105    16945.066 
   28300    1512.9132   -11022.037            0    -10552.89     16560.55 
   28400    1513.3518   -11032.999            0   -10563.716    16565.352 
   28500    1497.4279   -11033.151            0   -10568.806    16391.046 
   28600      1503.94   -11035.556            0   -10569.191    16462.328 
   28700    1524.7108   -11043.317            0   -10570.512    16689.689 
   28800    1474.9787   -11040.794            0    -10583.41    16145.315 
   28900    1409.0817   -11036.685            0   -10599.735    15423.996 
   29000    1463.2184   -11040.037            0     -10586.3    16016.584 
   29100    1491.4681   -11038.307            0    -10575.81    16325.809 
   29200    1474.1397    -11027.08            0   -10569.957     16136.13 
   29300     1531.188   -11037.831            0   -10563.017    16760.589 
   29400    1536.8983    -11039.36            0   -10562.776    16823.095 
   29500    1478.8458   -11034.345            0   -10575.762    16187.644 
   29600    1484.3563   -11044.186            0   -10583.894    16247.963 
   29700    1472.1998   -11027.999            0   -10571.477    16114.896 
   29800    1499.1406    -11024.67            0   -10559.794    16409.794 
   29900    1495.9598   -11026.686            0   -10562.796    16374.976 
   30000    1477.9321   -11028.171            0   -10569.871    16177.642 
   30100    1489.9294   -11037.631            0   -10575.611    16308.967 
   30200    1458.9017   -11040.819            0   -10588.421    15969.334 
   30300    1469.9276   -11038.913            0   -10583.096    16090.024 
   30400      1505.68   -11032.245            0   -10565.341    16481.374 
   30500    1470.7694   -11016.805            0   -10560.726    16099.239 
   30600    1500.1047   -11026.295            0    -10561.12    16420.347 
   30700    1464.0948   -11025.454            0   -10571.445    16026.178 
   30800    1485.7797   -11048.657            0   -10587.924    16263.543 
   30900    1477.9187   -11042.507            0   -10584.212    16177.496 
   31000      1519.51   -11042.899            0   -10571.707     16632.76 
   31100    1484.8319   -11029.303            0   -10568.864    16253.168 
   31200    1485.8324   -11030.956            0   -10570.207     16264.12 
   31300    1527.6165   -11042.613            0   -10568.907    16721.495 
   31400    1499.2779   -11031.718            0   -10566.799    16411.297 
   31500    1498.6543   -11023.519            0   -10558.793     16404.47 
   31600    1495.4172   -11017.888            0   -10554.166    16369.037 
   31700    1530.4253    -11032.73            0   -10558.153     16752.24 
   31800    1460.9659   -11029.795            0   -10576.757    15991.928 
   31900    1474.6763   -11040.895            0   -10583.605    16142.004 
   32000    1449.1511   -11030.507            0   -10581.132    15862.602 
   32100    1498.4874   -11029.135            0   -10564.461    16402.643 
   32200    1511.7868   -11029.428            0    -10560.63    16548.221 
   32300    1493.6746   -11026.848            0   -10563.667    16349.962 
   32400    1501.9854   -11037.222            0   -10571.463    16440.933 
   32500    1472.3222   -11034.032            0   -10577.472    16116.236 
   32600    1497.4315   -11032.746            0     -10568.4    16391.085 
   32700    1527.1089   -11028.631            0   -10555.082    16715.939 
   32800     1538.499   -11032.109            0   -10555.028    16840.615 
   32900    1492.3611   -11029.839            0   -10567.065    16335.584 
   33000    1480.7632   -11042.528            0   -10583.351    16208.632 
   33100     1456.767   -11035.662            0   -10583.926    15945.967 
   33200    1485.5317   -11034.761            0   -10574.105    16260.829 
   33300    1484.7785   -11030.244            0   -10569.822    16252.584 
   33400    1512.9375   -11035.097            0   -10565.942    16560.816 
   33500    1508.2701   -11034.195            0   -10566.488    16509.726 
   33600    1470.0425    -11033.23            0   -10577.378    16091.282 
   33700    1455.3876   -11043.147            0   -10591.839    15930.868 
   33800    1490.3516   -11047.182            0   -10585.031    16313.588 
   33900    1518.8265   -11040.673            0   -10569.692    16625.278 
   34000    1509.5362   -11038.676            0   -10570.576    16523.585 
   34100    1470.9628    -11030.99            0   -10574.852    16101.355 
   34200    1516.0186   -11036.325            0   -10566.215    16594.542 
   34300    1530.6346   -11028.231            0   -10553.589    16754.531 
   34400    1483.7092   -11020.223            0   -10560.132    16240.879 
   34500    1513.6469   -11050.811            0   -10581.436    16568.582 
   34600    1475.4987   -11041.768            0   -10584.223    16151.007 
   34700    1481.7365   -11034.298            0   -10574.819    16219.286 
   34800    1495.0941   -11022.094            0   -10558.472      16365.5 
   34900    1534.2494   -11030.235            0   -10554.472    16794.099 
   35000    1524.9084   -11035.705            0   -10562.838    16691.851 
   35100    1484.1748   -11033.731            0   -10573.496    16245.976 
   35200    1488.1112   -11037.755            0   -10576.299    16289.064 
   35300    1505.9652   -11037.397            0   -10570.405    16484.496 
   35400     1560.164   -11029.336            0   -10545.537    17077.764 
   35500    1525.1358   -11024.455            0   -10551.518    16694.341 
   35600    1463.8452   -11019.982            0   -10566.051    16023.445 
   35700    1484.9216   -11031.657            0    -10571.19     16254.15 
   35800     1487.397   -11030.514            0   -10569.279    16281.247 
   35900     1518.419   -11029.089            0   -10558.235    16620.818 
   36000    1541.1121   -11021.922            0   -10544.031     16869.22 
   36100    1489.3901   -11013.885            0   -10552.032    16303.064 
   36200     1495.847   -11033.001            0   -10569.146    16373.742 
   36300    1522.5039   -11045.062            0   -10572.942    16665.532 
   36400    1473.3792   -11033.559            0   -10576.671    16127.806 
   36500    1489.6458   -11032.963            0   -10571.031    16305.862 
   36600     1559.646   -11037.474            0   -10553.835    17072.093 
   36700    1496.3146   -11020.975            0   -10556.975    16378.859 
   36800     1464.731   -11027.962            0   -10573.756    16033.141 
   36900    1442.8598   -11028.655            0   -10581.232    15793.737 
   37000    1498.8006   -11038.774            0   -10574.004    16406.072 
   37100    1497.3132   -11031.534            0   -10567.225     16389.79 
   37200    1503.7604   -11029.081            0   -10562.772    16460.363 
   37300    1498.5372   -11022.968            0   -10558.279    16403.188 
   37400    1517.4281   -11028.684            0   -10558.137    16609.971 
   37500    1473.8907   -11031.757            0   -10574.711    16133.405 
   37600    1472.0238   -11038.443            0   -10581.976     16112.97 
   37700    1488.0562   -11035.207            0   -10573.768    16288.463 
   37800    1563.8109   -11042.797            0   -10557.867    17117.684 
   37900     1547.423   -11039.938            0    -10560.09    16938.299 
   38000    1482.8062     -11030.2            0   -10570.389    16230.995 
   38100    1509.4684   -11038.393            0   -10570.314    16522.842 
   38200    1482.3285   -11022.547            0   -10562.884    16225.766 
   38300    1520.6072   -11018.743            0    -10547.21    16644.769 
   38400    1556.9561   -11030.185            0    -10547.38    17042.649 
   38500    1493.5463   -11032.825            0   -10569.684    16348.557 
   38600    1480.1295   -11032.105            0   -10573.125    16201.695 
   38700    1478.7258    -11031.96            0   -10573.414    16186.331 
   38800    1501.0003    -11032.18            0   -10566.727     16430.15 
   38900    1504.7589   -11024.415            0   -10557.797    16471.292 
   39000    1542.6198   -11033.625            0   -10555.266    16885.722 
   39100     1490.264   -11037.091            0   -10574.967    16312.629 
   39200    1478.9227   -11040.667            0    -10582.06    16188.486 
   39300    1477.6831   -11032.507            0   -10574.285    16174.917 
   39400    1537.9417    -11037.67            0   -10560.762    16834.516 
   39500    1489.7614   -11020.919            0   -10558.951    16307.128 
   39600    1521.0469   -11033.039            0    -10561.37    16649.583 
   39700    1463.3138    -11021.84            0   -10568.073    16017.628 
   39800    1490.4334   -11031.272            0   -10569.096    16314.484 
   39900    1532.5861    -11048.24            0   -10572.993    16775.893 
   40000     1471.349   -11046.714            0   -10590.456    16105.583 
   40100    1466.3786   -11039.878            0   -10585.161    16051.176 
   40200    1515.6366   -11038.272            0   -10568.281    16590.361 
   40300    1464.0742   -11016.042            0    -10562.04    16025.953 
   40400    1543.1663   -11035.472            0   -10556.943    16891.705 
   40500    1482.3405   -11025.938            0   -10566.272    16225.898 
   40600    1484.7019   -11044.866            0   -10584.467    16251.745 
   40700    1461.7939   -11046.644            0   -10593.348    16000.991 
   40800    1486.4049   -11044.735            0   -10583.808    16270.387 
   40900    1471.6938   -11030.036            0   -10573.671    16109.357 
   41000    1497.1326   -11032.271            0   -10568.018    16387.813 
   41100    1472.8446   -11027.559            0   -10570.837    16121.954 
   41200    1464.2738   -11026.502            0   -10572.438    16028.137 
   41300    1511.7775   -11034.797            0   -10566.002    16548.119 
   41400    1535.6164   -11029.965            0   -10553.778    16809.062 
   41500    1535.7644   -11029.406            0   -10553.173    16810.683 
   41600    1487.7307   -11033.491            0   -10572.153    16284.899 
   41700    1492.9585   -11041.478            0   -10578.518    16342.123 
   41800    1467.8709   -11033.494            0   -10578.315    16067.511 
   41900     1490.906   -11037.305            0   -10574.982    16319.657 
   42000     1478.822   -11026.405            0    -10567.83    16187.384 
   42100    1564.7189   -11038.818            0   -10553.607    17127.623 
   42200    1514.9531   -11027.838            0   -10558.058    16582.879 
   42300    1501.5001   -11039.877            0   -10574.269    16435.621 
   42400    1486.3479   -11039.309            0   -10578.399    16269.762 
   42500    1484.5547   -11036.029            0   -10575.676    16250.134 
   42600    1488.6034    -11033.49            0   -10571.882    16294.452 
   42700    1506.6284    -11022.14            0   -10554.942    16491.756 
   42800    1544.6471    -11022.65            0   -10543.663    16907.913 
   42900    1491.6803    -11021.33            0   -10558.767    16328.132 
   43000    1492.9795   -11030.966            0       -10568    16342.354 
   43100    1490.1725   -11037.777            0   -10575.682    16311.628 
   43200    1488.5489   -11045.328            0   -10583.736    16293.855 
   43300    1518.1261    -11051.56            0   -10580.796    16617.612 
   43400      1496.45   -11028.019            0   -10563.977    16380.341 
   43500    1522.9848   -11025.122            0   -10552.852    16670.795 
   43600    1517.7195     -11023.1            0   -10552.462    16613.161 
   43700    1527.7864   -11045.373            0   -10571.614    16723.354 
   43800    1509.3158    -11048.44            0   -10580.409    16521.173 
   43900     1486.252   -11033.974            0   -10573.094    16268.713 
   44000     1525.107   -11031.231            0   -10558.303    16694.025 
   44100    1515.0427   -11027.845            0   -10558.037     16583.86 
   44200     1517.296   -11038.734            0   -10568.228    16608.524 
   44300    1468.2795   -11032.431            0   -10577.124    16071.984 
   44400    1498.8781   -11040.833            0   -10576.038    16406.921 
   44500    1516.3891    -11043.44            0   -10573.216    16598.598 
   44600    1489.9213   -11034.552            0   -10572.534    16308.878 
   44700    1493.8345   -11027.888            0   -10564.657    16351.713 
   44800    1547.2971   -11034.402            0   -10554.593    16936.921 
   44900    1533.0581   -11041.546            0   -10566.152    16781.059 
   45000    1474.7571   -11040.656            0   -10583.341    16142.889 
   45100    1526.7527   -11053.734            0   -10580.296     16712.04 
   45200    1509.9333   -11036.433            0    -10568.21    16527.932 
   45300    1531.1054   -11037.273            0   -10562.485    16759.684 
   45400    1504.5267   -11036.574            0   -10570.028    16468.751 
   45500    1432.1779   -11038.105            0   -10593.994    15676.811 
   45600    1446.6619   -11038.807            0   -10590.204    15835.355 
   45700    1487.0525   -11036.582            0   -10575.454    16277.476 
   45800    1516.0948   -11036.182            0   -10566.048    16595.376 
   45900    1503.4979   -11032.275            0   -10566.048    16457.489 
   46000    1540.0617   -11042.075            0    -10564.51    16857.721 
   46100    1510.5701   -11044.942            0   -10576.522    16534.903 
   46200    1487.4157   -11049.357            0   -10588.117    16281.451 
   46300     1494.923   -11046.237            0   -10582.669    16363.627 
   46400    1499.1056   -11030.915            0    -10566.05     16409.41 
   46500    1490.7442   -11022.577            0   -10560.305    16317.885 
   46600     1527.159   -11033.801            0   -10560.236    16716.487 
   46700    1527.9955   -11038.373            0   -10564.549    16725.643 
   46800     1502.637   -11046.629            0   -10580.669    16448.065 
   46900    1480.0651   -11051.533            0   -10592.572    16200.991 
   47000    1456.1528    -11038.19            0   -10586.645    15939.244 
   47100    1532.7782   -11049.728            0   -10574.421    16777.995 
   47200    1495.4046   -11027.436            0   -10563.718    16368.899 
   47300    1525.2941   -11029.664            0   -10556.678    16696.073 
   47400    1506.4525   -11028.675            0   -10561.531    16489.831 
   47500    1470.7861    -11036.38            0   -10580.296    16099.421 
   47600    1488.4293   -11044.816            0   -10583.262    16292.546 
   47700    1472.2171   -11033.299            0   -10576.772    16115.085 
   47800    1503.5242   -11036.852            0   -10570.616    16457.777 
   47900    1512.5913   -11037.509            0   -10568.462    16557.027 
   48000    1460.0495   -11026.987            0   -10574.233    15981.897 
   48100    1498.0998   -11029.906            0   -10565.353    16398.401 
   48200    1516.7827   -11020.706            0   -10550.359    16602.906 
   48300    1523.4866   -11028.516            0    -10556.09    16676.289 
   48400    1480.8022   -11029.139            0   -10569.949    16209.059 
   48500    1486.7367   -11034.373            0   -10573.343    16274.019 
   48600     1492.706   -11035.184            0   -10572.303     16339.36 
   48700    1487.3556   -11034.512            0    -10573.29    16280.793 
   48800    1481.7204   -11029.829            0   -10570.355    16219.109 
   48900    1512.6115   -11025.571            0   -10556.518    16557.248 
   49000    1507.8952   -11016.826            0   -10549.235    16505.622 
   49100    1501.8202   -11020.243            0   -10554.536    16439.125 
   49200    1500.9625   -11037.386            0   -10571.945    16429.737 
   49300    1498.2867   -11040.762            0    -10576.15    16400.446 
   49400    1494.3913   -11037.882            0   -10574.478    16357.807 
   49500    1510.4595    -11039.11            0   -10570.724    16533.691 
   49600    1543.1644   -11034.396            0   -10555.869    16891.684 
   49700    1509.5526   -11021.047            0   -10552.942    16523.764 
   49800    1506.1253   -11035.412            0    -10568.37    16486.249 
   49900     1492.191   -11040.575            0   -10577.854    16333.723 
   50000    1503.0845   -11039.945            0   -10573.846    16452.964 
Loop time of 11131.5 on 1 procs for 50000 steps with 2400 atoms

Performance: 0.388 ns/day, 61.842 hours/ns, 4.492 timesteps/s
98.5% CPU use with 1 MPI tasks x 1 OpenMP threads

MPI task timing breakdown:
Section |  min time  |  avg time  |  max time  |%varavg| %total
---------------------------------------------------------------
Pair    | 11088      | 11088      | 11088      |   0.0 | 99.61
Neigh   | 36.055     | 36.055     | 36.055     |   0.0 |  0.32
Comm    | 3.1034     | 3.1034     | 3.1034     |   0.0 |  0.03
Output  | 0.0162     | 0.0162     | 0.0162     |   0.0 |  0.00
Modify  | 3.1856     | 3.1856     | 3.1856     |   0.0 |  0.03
Other   |            | 0.9013     |            |       |  0.01

Nlocal:        2400.00 ave        2400 max        2400 min
Histogram: 1 0 0 0 0 0 0 0 0 0
Nghost:        5057.00 ave        5057 max        5057 min
Histogram: 1 0 0 0 0 0 0 0 0 0
Neighs:         0.00000 ave           0 max           0 min
Histogram: 1 0 0 0 0 0 0 0 0 0
FullNghs:      271628.0 ave      271628 max      271628 min
Histogram: 1 0 0 0 0 0 0 0 0 0

Total # of neighbors = 271628
Ave neighs/atom = 113.17833
Neighbor list builds = 2541
Dangerous builds = 0

velocity        all scale ${Tsim}
velocity        all scale 1500
unfix           1

#-----------------------------------------
# 2nd equilibration run
compute         ke all ke/atom
variable        temp atom c_ke/1.5

fix             1 all nve

compute         layers all chunk/atom bin/1d z lower 0.05 units reduced # <--- delta z ?
fix             2 all ave/chunk 10 100 1000 layers v_temp file profile.mp # <--- use every 10 steps, 100 times, repeat every 1000 steps
fix             3 all thermal/conductivity 10 z 20 # <--- perform kintic energy swap every 10 steps, using 20 bins

variable        tdiff equal f_2[11][3]-f_2[1][3]
thermo_style    custom step temp epair etotal f_3 v_tdiff
thermo          1000
#thermo_modify   colname f_3 E_delta colname v_tdiff dTemp_step


run 200000
Per MPI rank memory allocation (min/avg/max) = 4.240 | 4.240 | 4.240 Mbytes
Step Temp E_pair TotEng f_3 v_tdiff 
   50000         1500   -11039.951   -10574.809            0            0 
   51000    1500.8915   -11040.272   -10574.853    59.383961  0.045987012 
   52000    1518.0174   -11045.571   -10574.842    113.80948  0.063410819 
   53000    1470.9379   -11030.945   -10574.815    167.49299  0.066607123 
   54000    1504.5596   -11041.377    -10574.82    221.76242  0.073685903 
   55000    1468.9102   -11030.329   -10574.827    271.41962  0.079635313 
   56000    1455.6578   -11026.206   -10574.814    323.75135  0.079357936 
   57000    1500.3273   -11040.055   -10574.811    375.44314   0.07558231 
   58000    1512.4097   -11043.809   -10574.818    427.65089  0.081230177 
   59000    1500.7838   -11040.186     -10574.8     479.9773  0.083491552 
   60000    1485.0492   -11035.299   -10574.792    529.02667  0.081842847 
   61000    1514.2579   -11044.348   -10574.784    581.95815  0.068082741 
   62000    1498.4154   -11039.437   -10574.785    631.97897  0.073326483 
   63000    1517.4904   -11045.347    -10574.78    683.73783  0.082065342 
   64000    1508.6636   -11042.588   -10574.759     736.6702  0.084281734 
   65000    1476.8426   -11032.733   -10574.772    785.28873  0.085168286 
   66000    1486.9347   -11035.869   -10574.778    835.04365  0.082621291 
   67000    1494.1049    -11038.12   -10574.806    885.26247  0.074427946 
   68000    1491.1946   -11037.231   -10574.819    937.14798  0.066460486 
   69000    1511.0201   -11043.392   -10574.832    989.86916   0.07414464 
   70000       1501.3   -11040.374   -10574.828    1041.3694  0.072943047 
   71000    1489.9842   -11036.887    -10574.85    1093.3345  0.083222035 
   72000    1510.5871    -11043.26   -10574.834      1140.88  0.077431462 
   73000    1519.6616     -11046.1    -10574.86    1191.1675  0.078471029 
   74000    1495.5821   -11038.615   -10574.843    1241.4045  0.077273643 
   75000     1490.723   -11037.125   -10574.859    1291.8316  0.076474618 
   76000    1497.7266   -11039.294   -10574.856    1340.2196  0.076333534 
   77000    1509.2958   -11042.907   -10574.882    1394.3403  0.072375136 
   78000    1471.0254   -11031.016   -10574.858    1444.6666  0.075367437 
   79000    1484.8126   -11035.279   -10574.846    1494.8928  0.069592736 
   80000    1518.3677   -11045.729   -10574.891    1548.4343  0.081789382 
   81000    1498.3912   -11039.531   -10574.887    1595.6028  0.076240597 
   82000    1514.7741   -11044.597   -10574.873    1646.9753  0.073300868 
   83000    1501.6879   -11040.563   -10574.897    1698.2938  0.079299398 
   84000    1509.3063   -11042.937   -10574.908    1747.9445  0.082766135 
   85000    1467.7428   -11030.021   -10574.882    1798.5671  0.076228292 
   86000       1478.8   -11033.438   -10574.869    1850.4555  0.078748699 
   87000    1510.1474   -11043.153   -10574.864    1901.8426  0.084385582 
   88000    1497.5957   -11039.261   -10574.864    1955.4245  0.076939943 
   89000     1493.546   -11038.009   -10574.868    2006.7277  0.065382587 
   90000    1496.4913   -11038.942   -10574.888    2058.6133  0.077962173 
   91000    1532.2831   -11050.024   -10574.871    2111.6526  0.081598946 
   92000    1488.1162   -11036.349   -10574.891     2163.778   0.06904614 
   93000    1492.6508   -11037.751   -10574.887    2214.2365   0.07109579 
   94000    1493.5972   -11038.026   -10574.869    2265.2972  0.075124008 
   95000    1499.9432   -11040.008   -10574.883    2317.8049  0.083008001 
   96000    1491.0605   -11037.252   -10574.881    2367.7315  0.083747061 
   97000    1469.7804   -11030.656   -10574.885    2418.5335  0.080960488 
   98000    1481.4743   -11034.297   -10574.899    2468.1785  0.080362163 
   99000    1488.4981   -11036.487   -10574.911    2521.2149   0.07949629 
  100000    1512.0411   -11043.801   -10574.924    2571.7403  0.076536939 
  101000    1496.5759   -11038.979   -10574.899    2623.4446  0.080935759 
  102000    1506.7471   -11042.144   -10574.909    2673.5713  0.070858738 
  103000    1516.0917   -11045.059   -10574.926    2723.8048  0.074284055 
  104000    1542.3294   -11053.192   -10574.924    2777.3104   0.07654413 
  105000    1501.3949   -11040.511   -10574.936    2828.4767   0.08162507 
  106000    1493.7944    -11038.12   -10574.902    2878.2634  0.075478985 
  107000    1509.7501   -11043.085   -10574.919    2928.6429  0.071038724 
  108000    1487.8134   -11036.304    -10574.94    2978.8823  0.073868105 
  109000    1449.7126   -11024.438    -10574.89    3030.5888  0.071289317 
  110000    1493.9952   -11038.188   -10574.907    3083.0862  0.074221924 
  111000    1492.8821   -11037.858   -10574.923    3133.3527  0.074370498 
  112000    1472.3016   -11031.508   -10574.954    3183.2196  0.082856896 
  113000    1480.5723    -11034.07   -10574.952    3234.0388  0.079150091 
  114000    1486.8323   -11036.004   -10574.944    3284.0699  0.075988827 
  115000    1532.4779   -11050.172   -10574.958    3334.9039  0.075805622 
  116000    1485.7754   -11035.692   -10574.961    3385.6297  0.074503578 
  117000    1471.5974   -11031.309   -10574.973    3437.7021  0.074649503 
  118000    1510.9966   -11043.559   -10575.006    3490.8046  0.073449809 
  119000    1491.8242   -11037.602   -10574.994    3540.7922  0.075728074 
  120000    1517.2293   -11045.522   -10575.037    3590.6324  0.083307811 
  121000    1492.9544    -11037.97   -10575.012    3641.0997  0.078383149 
  122000      1490.14   -11037.109   -10575.024    3690.6525  0.068383541 
  123000    1516.9661   -11045.428   -10575.024    3741.7778  0.078616865 
  124000    1457.3536   -11026.932   -10575.013    3791.1243  0.077160388 
  125000    1486.1605   -11035.866   -10575.015     3839.783  0.075996579 
  126000    1491.2102   -11037.419   -10575.002    3892.9432  0.074389316 
  127000    1481.5775   -11034.423   -10574.993    3941.4593  0.080296177 
  128000    1470.9621   -11031.154   -10575.016    3991.9577  0.080538162 
  129000    1494.2283   -11038.356   -10575.004    4041.4068  0.075733533 
  130000    1486.2842   -11035.888   -10574.998    4094.4237  0.080144346 
  131000    1502.3365   -11040.878   -10575.011    4146.5788  0.077699091 
  132000    1473.9723   -11032.066   -10574.995    4198.2618  0.075305946 
  133000     1474.719   -11032.289   -10574.986    4249.6526  0.075768843 
  134000    1521.9256   -11046.937   -10574.995    4299.2239  0.078725885 
  135000     1485.707   -11035.695   -10574.985    4349.8335  0.066133304 
  136000    1470.0753    -11030.87   -10575.007    4400.3887   0.07044004 
  137000    1489.5921    -11036.94   -10575.025    4451.2553  0.072979224 
  138000    1490.1611   -11037.104   -10575.013    4501.5001  0.078584866 
  139000    1443.1595   -11022.521   -10575.004    4554.8668  0.069225962 
  140000    1476.6254   -11032.947   -10575.053    4606.6209  0.080526101 
  141000    1523.9836   -11047.614   -10575.034     4659.648  0.075534675 
  142000    1522.1337   -11047.025   -10575.019    4712.9602  0.073090918 
  143000    1496.0421    -11038.93   -10575.014    4762.3995  0.070594178 
  144000    1497.6286   -11039.427   -10575.019    4814.3168  0.064580818 
  145000    1485.5331   -11035.687    -10575.03     4863.523  0.077227961 
  146000    1508.4491   -11042.801   -10575.038    4916.0755  0.077641651 
  147000    1512.2607   -11043.994    -10575.05    4967.0946  0.069917197 
  148000     1486.268   -11035.912   -10575.028    5016.1159  0.074552648 
  149000    1479.0913   -11033.693   -10575.034    5066.0324   0.08031933 
  150000    1481.1969   -11034.334   -10575.022    5115.1476  0.071914112 
  151000    1477.5416   -11033.193   -10575.015    5164.9478  0.071581304 
  152000    1470.6808   -11031.084   -10575.033    5216.5415  0.076485418 
  153000    1516.5982   -11045.343   -10575.053    5267.4313  0.069381324 
  154000    1476.5086   -11032.889   -10575.031    5321.9268  0.074099588 
  155000    1505.2664   -11041.828   -10575.052    5373.8195  0.080809936 
  156000    1491.4963   -11037.562   -10575.057    5426.0595  0.079348494 
  157000    1511.2043   -11043.669   -10575.052     5476.234  0.085036934 
  158000    1493.2667   -11038.129   -10575.074      5527.43  0.073414301 
  159000    1465.2271   -11029.429   -10575.069    5578.5496  0.069384781 
  160000    1478.7974   -11033.653   -10575.086    5628.3345  0.080892172 
  161000    1485.2405   -11035.621   -10575.055    5680.7643    0.0687238 
  162000    1480.6319   -11034.226   -10575.089    5730.5005  0.076152786 
  163000     1493.714   -11038.291   -10575.098    5781.3245   0.07269213 
  164000    1466.3563   -11029.808   -10575.098     5833.857  0.067256634 
  165000    1487.4541   -11036.355   -10575.103    5884.8001  0.072059702 
  166000    1445.7326   -11023.377   -10575.062    5937.9899   0.07578049 
  167000     1495.945   -11038.994   -10575.109     5986.898   0.07144489 
  168000    1532.9728   -11050.468     -10575.1    6037.9836  0.078007829 
  169000    1493.8387   -11038.328   -10575.096    6086.1991  0.074089945 
  170000    1491.9036   -11037.749   -10575.117    6137.7901  0.076833344 
  171000    1488.6116    -11036.71   -10575.099    6190.6451  0.079780643 
  172000    1498.7695   -11039.868   -10575.107     6243.204  0.080295092 
  173000    1518.2835    -11045.93   -10575.117    6292.4871  0.078402097 
  174000    1509.9645   -11043.329   -10575.097    6343.7484  0.080207777 
  175000    1477.0578   -11033.142   -10575.113    6396.5602  0.074790288 
  176000    1499.1118   -11039.964   -10575.097    6449.9574  0.071367148 
  177000    1479.2047   -11033.829   -10575.135     6502.273   0.07907729 
  178000    1448.2989   -11024.208   -10575.098    6553.3636  0.083363282 
  179000    1508.9314   -11043.023   -10575.111    6603.5706  0.072674465 
  180000    1442.6719   -11022.478   -10575.112    6656.4325  0.072005792 
  181000    1481.9218   -11034.664   -10575.127    6710.7663  0.064745238 
  182000    1492.1739   -11037.847   -10575.131    6764.1264  0.078000221 
  183000    1492.5709   -11037.967   -10575.128    6815.9901  0.071802012 
  184000    1486.6234   -11036.084   -10575.089    6868.7721  0.068191095 
  185000    1498.5756     -11039.8   -10575.099    6919.4338  0.078800243 
  186000    1495.2231   -11038.802    -10575.14    6969.2339  0.074406062 
  187000    1500.7993   -11040.533   -10575.143    7019.4482  0.085418538 
  188000    1495.3761   -11038.868   -10575.159    7068.7492  0.073591848 
  189000    1473.7283   -11032.134   -10575.138    7118.9683  0.075188357 
  190000    1496.9125    -11039.32   -10575.135    7168.5381  0.080598493 
  191000    1480.1318   -11034.129   -10575.147    7221.8756   0.07859019 
  192000    1492.7027   -11038.034   -10575.154    7271.7072  0.080069001 
  193000    1480.7102   -11034.319   -10575.158    7327.3001   0.07303291 
  194000     1479.152   -11033.859   -10575.182    7376.6324   0.08792523 
  195000    1487.9447   -11036.557   -10575.152    7429.0569  0.077904412 
  196000    1499.6119   -11040.216   -10575.194    7481.0892  0.074856064 
  197000    1477.3194   -11033.298   -10575.188    7534.9415  0.077647912 
  198000     1482.402    -11034.88   -10575.194    7585.0647  0.073240009 
  199000    1492.7953   -11038.102   -10575.193    7635.8216   0.07003405 
  200000    1499.8129   -11040.283   -10575.199    7686.9269  0.069248713 
  201000    1520.7927   -11046.794   -10575.204    7737.3427  0.079693429 
  202000    1482.0943   -11034.772   -10575.182    7791.8576   0.06787625 
  203000     1515.871   -11045.259   -10575.195    7842.9639  0.079175705 
  204000    1484.9221   -11035.646   -10575.179    7897.2602  0.073915182 
  205000    1506.1428   -11042.203   -10575.156    7948.8119  0.076094732 
  206000    1497.6039   -11039.593   -10575.193     7996.729  0.075812377 
  207000    1494.6208   -11038.649   -10575.175    8047.7514  0.085903185 
  208000    1506.3271   -11042.308   -10575.203    8098.3738  0.078824523 
  209000    1479.8063   -11034.059   -10575.178       8145.9  0.074284574 
  210000    1496.4617   -11039.226    -10575.18    8198.0443  0.078184707 
  211000    1470.7343   -11031.221   -10575.153    8249.4662  0.073117321 
  212000    1461.1607   -11028.273   -10575.175    8301.1189  0.079535648 
  213000    1503.8031    -11041.54   -10575.218    8350.2355  0.075494694 
  214000    1501.2388    -11040.74   -10575.213    8402.9765  0.066927268 
  215000    1488.0864   -11036.633   -10575.185    8453.8903  0.076785576 
  216000     1493.971   -11038.486   -10575.213    8504.3289   0.07542651 
  217000    1497.8519   -11039.688   -10575.212    8556.2803  0.065666895 
  218000     1490.953   -11037.556   -10575.218    8606.3821  0.078203745 
  219000    1501.4785   -11040.803   -10575.202    8655.4364  0.078015332 
  220000    1489.8219   -11037.166    -10575.18    8708.4116  0.074044736 
  221000    1481.0263   -11034.452   -10575.193     8762.198  0.072942041 
  222000    1485.4899   -11035.849   -10575.206    8812.0245  0.072503906 
  223000    1497.5676   -11039.624   -10575.236    8863.5572  0.075651206 
  224000    1488.5247   -11036.771   -10575.186    8914.1768  0.076375451 
  225000    1492.3128    -11037.97   -10575.211    8963.3325    0.0822347 
  226000    1482.0858   -11034.779   -10575.192    9017.4658   0.07454846 
  227000    1483.8714   -11035.322   -10575.181     9068.431  0.068854164 
  228000    1507.2462   -11042.603   -10575.213    9119.1478  0.073095967 
  229000    1520.0467   -11046.573   -10575.214    9170.2383  0.085185536 
  230000    1492.9127   -11038.148   -10575.204    9219.7544  0.072848445 
  231000    1491.2935   -11037.655   -10575.212    9272.9494  0.071737547 
  232000    1459.4254    -11027.76   -10575.199    9326.8472  0.069233927 
  233000    1503.3809   -11041.404   -10575.213    9377.3675  0.072665073 
  234000     1490.659   -11037.492   -10575.246    9429.9121  0.078913762 
  235000     1508.415   -11042.954   -10575.202    9480.4271  0.077299587 
  236000    1488.8981   -11036.951   -10575.251    9533.5263  0.078029882 
  237000    1490.9547   -11037.587   -10575.249    9585.5008  0.077208342 
  238000    1495.0623   -11038.862   -10575.251    9638.5542  0.076969731 
  239000    1485.6476   -11035.905   -10575.213    9688.9267  0.071460751 
  240000    1512.4368   -11044.236   -10575.237    9738.4669  0.074245022 
  241000    1492.1389   -11037.945    -10575.24    9790.2081  0.076642922 
  242000    1482.7354   -11035.014   -10575.225    9842.5278  0.073231292 
  243000    1481.8058   -11034.739   -10575.239    9894.1451  0.076583031 
  244000    1519.7194   -11046.479   -10575.221    9949.2794   0.07296669 
  245000    1500.8173   -11040.607   -10575.211    9998.9071  0.081360876 
  246000    1493.9415   -11038.519   -10575.255     10052.26  0.079474675 
  247000    1490.2979   -11037.375   -10575.241    10101.653   0.07123006 
  248000    1478.5633   -11033.739   -10575.244    10153.662  0.072601857 
  249000    1490.9895   -11037.579   -10575.231    10203.676  0.077880763 
  250000     1487.302   -11036.418   -10575.213    10258.279  0.068159106 
Loop time of 44633.1 on 1 procs for 200000 steps with 2400 atoms

Performance: 0.387 ns/day, 61.990 hours/ns, 4.481 timesteps/s
98.6% CPU use with 1 MPI tasks x 1 OpenMP threads

MPI task timing breakdown:
Section |  min time  |  avg time  |  max time  |%varavg| %total
---------------------------------------------------------------
Pair    | 44453      | 44453      | 44453      |   0.0 | 99.60
Neigh   | 152.88     | 152.88     | 152.88     |   0.0 |  0.34
Comm    | 13.036     | 13.036     | 13.036     |   0.0 |  0.03
Output  | 0.0063851  | 0.0063851  | 0.0063851  |   0.0 |  0.00
Modify  | 10.055     | 10.055     | 10.055     |   0.0 |  0.02
Other   |            | 3.83       |            |       |  0.01

Nlocal:        2400.00 ave        2400 max        2400 min
Histogram: 1 0 0 0 0 0 0 0 0 0
Nghost:        5214.00 ave        5214 max        5214 min
Histogram: 1 0 0 0 0 0 0 0 0 0
Neighs:         0.00000 ave           0 max           0 min
Histogram: 1 0 0 0 0 0 0 0 0 0
FullNghs:      272330.0 ave      272330 max      272330 min
Histogram: 1 0 0 0 0 0 0 0 0 0

Total # of neighbors = 272330
Ave neighs/atom = 113.47083
Neighbor list builds = 10617
Dangerous builds = 0

#------------------------------------------
# thermal conductivity calculation
# reset fix thermal/conductivity to zero energy accumulation
fix             3 all thermal/conductivity 10 z 20

variable start_time equal time
variable kappa equal (f_3/(time-${start_time})/(lx*ly)/2.0)*(lz/2.0)/f_ave
variable kappa equal (f_3/(time-250)/(lx*ly)/2.0)*(lz/2.0)/f_ave

fix             ave all ave/time 1 1 1000 v_tdiff ave running
thermo_style    custom step temp epair etotal f_3 v_tdiff f_ave
# thermo_modify   colname f_3 E_delta colname v_tdiff dTemp_step colname f_ave dTemp

run 200000
Per MPI rank memory allocation (min/avg/max) = 4.496 | 4.496 | 4.496 Mbytes
Step Temp E_pair TotEng f_3 v_tdiff f_ave 
  250000     1487.302   -11036.415    -10575.21            0  0.068159106  0.068159106 
  251000    1465.4568   -11029.667   -10575.236    51.708479  0.074169342  0.071164224 
  252000      1495.44   -11038.941   -10575.213    98.290727  0.074685656  0.072338035 
  253000     1482.717   -11035.012   -10575.228    152.02647  0.065290198  0.070576076 
  254000    1491.8044   -11037.814   -10575.213    201.15572  0.072185694  0.070897999 
  255000    1499.6273   -11040.256   -10575.229    252.89449  0.078634797  0.072187466 
  256000    1503.2496   -11041.391    -10575.24    303.41692  0.074804003  0.072561257 
  257000    1477.4267   -11033.355   -10575.213     355.8048  0.072912583  0.072605172 
  258000    1489.6633    -11037.16   -10575.223    409.19158  0.072043058  0.072542715 
  259000    1505.7028   -11042.133   -10575.222    458.12951   0.07575204  0.072863648 
  260000    1469.8574   -11031.035    -10575.24      510.056  0.070688251  0.072665884 
  261000    1508.3291    -11042.95   -10575.225    561.96719    0.0731179  0.072703552 
  262000    1498.2625   -11039.824    -10575.22    614.24965  0.076409784  0.072988647 
  263000    1484.6063   -11035.608   -10575.239    668.13373  0.078680349  0.073395197 
  264000    1478.6801   -11033.747   -10575.216    717.93951  0.076635201  0.073611197 
  265000    1490.4983   -11037.416    -10575.22    770.38118  0.073526121   0.07360588 
  266000    1506.3227   -11042.358   -10575.255    820.82735  0.081650439   0.07407909 
  267000    1497.8175   -11039.676    -10575.21    876.43246  0.072717439  0.074003442 
  268000    1548.7336   -11055.502   -10575.247    926.71836  0.075632552  0.074089185 
  269000    1497.1893   -11039.493   -10575.222    974.91763  0.079556772  0.074362564 
  270000    1507.2418    -11042.61   -10575.222    1025.3031   0.06603612  0.073966067 
  271000    1510.7416   -11043.701   -10575.228    1075.0647  0.073483821  0.073944147 
  272000    1473.1784   -11032.021   -10575.195    1129.1994  0.071166083  0.073823361 
  273000    1489.6094   -11037.131    -10575.21    1181.9689  0.075437008  0.073890597 
  274000    1497.4225   -11039.599   -10575.255     1233.523  0.085192245  0.074342663 
  275000    1506.6376    -11042.43   -10575.229    1282.6003  0.080175571  0.074567005 
  276000    1485.0994   -11035.713   -10575.191    1332.1382   0.08060433   0.07479061 
  277000     1484.099   -11035.437   -10575.225    1383.0934  0.086318833  0.075202332 
  278000    1495.6028   -11038.978   -10575.198    1434.0372  0.081632758  0.075424071 
  279000     1506.537   -11042.395   -10575.225    1484.3385  0.071771833   0.07530233 
  280000    1514.5007   -11044.819    -10575.18    1536.4567  0.074050918  0.075261962 
  281000    1503.1487   -11041.351   -10575.232    1589.1595  0.076735839   0.07530802 
  282000    1506.8771   -11042.502   -10575.227    1639.4364  0.082126618  0.075514644 
  283000     1512.118   -11044.148   -10575.248    1691.5186  0.070056292  0.075354105 
  284000    1460.3979   -11028.094   -10575.232    1741.6775  0.077726461  0.075421886 
  285000    1493.6724   -11038.426   -10575.245    1791.0883  0.074460252  0.075395174 
  286000     1482.589    -11034.98   -10575.237    1841.9757  0.069603141  0.075238633 
  287000    1490.8275   -11037.548    -10575.25    1893.8039  0.064849732  0.074965241 
  288000    1488.3532   -11036.802   -10575.271    1944.4858  0.072717877  0.074907616 
  289000    1507.9399   -11042.865    -10575.26    1996.5501  0.075274497  0.074916788 
  290000     1479.129   -11033.931    -10575.26    2048.3132  0.081861827  0.075086179 
  291000    1482.5879   -11034.991   -10575.248     2096.325  0.076691985  0.075124413 
  292000    1484.5976   -11035.627   -10575.261    2149.7834  0.070760957  0.075022937 
  293000    1488.3574   -11036.809   -10575.276     2203.488     0.069375  0.074894575 
  294000    1491.9119   -11037.911   -10575.277    2255.4607  0.073617874  0.074866204 
  295000     1480.695   -11034.436   -10575.279    2305.0473  0.070167266  0.074764053 
  296000    1511.1701   -11043.911   -10575.305    2356.4759  0.079928905  0.074873943 
  297000    1512.7633   -11044.354   -10575.254    2407.5509  0.076469467  0.074907183 
  298000    1496.0177   -11039.169   -10575.261    2459.9329  0.072100299    0.0748499 
  299000    1497.7407    -11039.72   -10575.278    2511.9914  0.070182093  0.074756544 
  300000     1504.078   -11041.671   -10575.264    2564.3533  0.074777192  0.074756949 
  301000    1498.4373   -11039.928    -10575.27    2614.9754  0.071202243  0.074688589 
  302000    1475.9185   -11033.007   -10575.332    2668.3415  0.077490076  0.074741447 
  303000    1484.4247   -11035.616   -10575.303    2722.3787  0.069287005  0.074640439 
  304000    1473.3263   -11032.171     -10575.3    2772.7199  0.073078092  0.074612033 
  305000    1487.6082   -11036.592   -10575.292    2824.3056  0.070217726  0.074533563 
  306000    1485.6629    -11036.02   -10575.323     2875.272  0.071059511  0.074472615 
  307000    1492.8074   -11038.243   -10575.331    2925.8539  0.065106978  0.074311138 
  308000    1501.0839   -11040.812   -10575.334    2976.7356  0.068588281  0.074214141 
  309000    1484.3001   -11035.595   -10575.321    3029.9441  0.069759447  0.074139896 
  310000    1545.3007   -11054.517   -10575.326    3080.7931  0.086042333  0.074335018 
  311000    1511.3573   -11043.968   -10575.303    3130.6662  0.081396003  0.074448904 
  312000     1508.657   -11043.149   -10575.322    3183.4499  0.073228963   0.07442954 
  313000    1501.1629   -11040.816   -10575.313    3236.7015  0.076627092  0.074463877 
  314000     1521.881   -11047.246   -10575.318    3286.7169  0.080663505  0.074559256 
  315000    1493.2459   -11038.345   -10575.297    3338.1019  0.074930204  0.074564876 
  316000    1486.7128    -11036.35   -10575.327    3387.2809  0.078859477  0.074628975 
  317000    1470.2097    -11031.23   -10575.326    3437.5486  0.076064319  0.074650083 
  318000    1516.4176   -11045.567   -10575.334    3486.6268  0.069424691  0.074574353 
  319000    1506.4772    -11042.45   -10575.299    3540.4622  0.067377271  0.074471537 
  320000    1509.6079   -11043.449   -10575.327    3593.4908   0.06369596  0.074319768 
  321000    1490.8218   -11037.595   -10575.298    3645.2141  0.074958794  0.074328644 
  322000    1491.1836   -11037.733   -10575.325    3695.7444  0.066166568  0.074216835 
  323000    1496.1353   -11039.267   -10575.322    3745.3362  0.076522792  0.074247996 
  324000    1502.7229   -11041.306   -10575.319    3797.2828  0.082341944  0.074355915 
  325000    1513.8098   -11044.748   -10575.323    3848.7097  0.075697774  0.074373571 
  326000    1496.1026   -11039.273   -10575.339    3900.5832  0.070082745  0.074317846 
  327000    1513.0573    -11044.56   -10575.368     3952.783   0.07002963  0.074262869 
  328000    1505.2979   -11042.148   -10575.363    4004.2524  0.075662523  0.074280586 
  329000    1494.3394   -11038.743   -10575.356    4059.1108  0.071387079  0.074244418 
  330000    1491.9753   -11037.991   -10575.337    4112.1403  0.069107616     0.074181 
  331000    1475.8226   -11033.008   -10575.362    4167.2506  0.066379042  0.074085854 
  332000    1512.8206   -11044.446   -10575.328    4217.9785  0.062989321  0.073952161 
  333000    1458.8214   -11027.712   -10575.339    4270.2633  0.070306561  0.073908761 
  334000    1481.9729   -11034.875   -10575.322    4321.6454   0.07714449  0.073946829 
  335000    1481.7726   -11034.812   -10575.322    4375.5251  0.072542179  0.073930496 
  336000    1501.5426   -11040.964   -10575.343    4427.7153   0.07684722  0.073964021 
  337000    1490.4045   -11037.499   -10575.332    4478.3943  0.074126551  0.073965868 
  338000    1485.8935   -11036.075   -10575.307    4528.1848  0.077680634  0.074007607 
  339000    1467.5761   -11030.409   -10575.321    4578.5853  0.076566909  0.074036044 
  340000    1484.6677   -11035.713   -10575.325    4631.9429  0.079453976  0.074095581 
  341000    1511.1739   -11043.962   -10575.354    4684.6341  0.077833247  0.074136208 
  342000    1485.8722   -11036.096   -10575.334    4735.0259  0.082445148  0.074225552 
  343000    1467.2121   -11030.297   -10575.322    4785.2924  0.076320668   0.07424784 
  344000    1499.2241   -11040.235   -10575.333    4837.8242  0.076285183  0.074269286 
  345000    1507.3185   -11042.766   -10575.354     4887.451  0.081530623  0.074344925 
  346000    1484.3566   -11035.638   -10575.346    4938.9608  0.086757845  0.074472893 
  347000    1477.5149   -11033.504   -10575.334    4990.9481  0.077306704  0.074501809 
  348000    1513.4009   -11044.666   -10575.368    5038.8151  0.082673193  0.074584349 
  349000    1499.6606   -11040.369   -10575.332    5089.8638  0.072657063  0.074565076 
  350000    1499.3069    -11040.28   -10575.353    5143.0211  0.072720632  0.074546814 
  351000    1492.8308   -11038.271   -10575.351    5191.7676  0.072449617  0.074526253 
  352000    1503.7056   -11041.649   -10575.358     5243.294  0.076485639  0.074545276 
  353000     1508.844   -11043.242   -10575.357    5295.1985  0.071035483  0.074511528 
  354000     1464.026   -11029.354   -10575.367    5349.1535  0.071758879  0.074485313 
  355000    1489.2834   -11037.172   -10575.352    5400.6969  0.068404841   0.07442795 
  356000    1503.9451   -11041.692   -10575.326    5453.1874  0.081666191  0.074495597 
  357000    1490.1918   -11037.437   -10575.335    5505.3603  0.080317392  0.074549502 
  358000    1481.2971   -11034.707   -10575.364    5556.0842  0.081977257  0.074617647 
  359000    1478.0288   -11033.687   -10575.357    5606.8293  0.079250745  0.074659766 
  360000    1482.7022   -11035.127   -10575.348    5658.0002  0.074997049  0.074662805 
  361000    1498.7771   -11040.116   -10575.353    5708.0667  0.073154683  0.074649339 
  362000     1490.931   -11037.713   -10575.383    5760.7625  0.079983905  0.074696548 
  363000    1507.9675   -11043.013   -10575.399    5813.5983   0.07593744  0.074707433 
  364000    1485.1358   -11035.885   -10575.351    5862.4081   0.07757629  0.074732379 
  365000    1493.3861   -11038.441    -10575.35    5912.6611  0.071247059  0.074702333 
  366000    1499.3649   -11040.326    -10575.38    5967.4494  0.065777976  0.074626057 
  367000    1492.3597   -11038.122   -10575.349    6019.6822  0.071582296  0.074600262 
  368000    1484.7809   -11035.776   -10575.353    6070.2518  0.070082467  0.074562298 
  369000    1497.2935   -11039.664   -10575.361    6122.8159  0.075876564   0.07457325 
  370000     1498.241    -11039.98   -10575.383    6176.0551   0.06231632  0.074471953 
  371000    1473.1097    -11032.16   -10575.356    6229.8808  0.066600928  0.074407436 
  372000    1503.7409   -11041.686   -10575.383    6281.9981  0.071165376  0.074381078 
  373000    1534.8474   -11051.348   -10575.399    6338.2651  0.065850548  0.074312284 
  374000    1545.8814   -11054.793   -10575.423     6389.978  0.073414205  0.074305099 
  375000    1489.8953    -11037.41   -10575.401    6442.7938  0.077527372  0.074330673 
  376000    1477.8352   -11033.658   -10575.389    6493.2681  0.071713984  0.074310069 
  377000    1489.5336   -11037.281   -10575.384    6543.8089  0.073549639  0.074304128 
  378000    1485.3854   -11036.022   -10575.412    6594.1135  0.078728927  0.074338429 
  379000    1476.5981   -11033.276   -10575.391    6644.7245  0.081913353  0.074396697 
  380000    1493.0626   -11038.413   -10575.422    6692.9389  0.080855084  0.074445998 
  381000     1477.099   -11033.462   -10575.421    6745.3689  0.073804797   0.07444114 
  382000    1473.7399    -11032.38    -10575.38     6798.691  0.068500201  0.074396472 
  383000    1490.3941   -11037.553   -10575.389     6849.321  0.082114603   0.07445407 
  384000    1489.9784   -11037.411   -10575.376    6899.1171   0.07461723  0.074455278 
  385000    1498.4155   -11040.064   -10575.413    6949.7251  0.082638669   0.07451545 
  386000    1470.1329   -11031.286   -10575.405    6999.3627  0.075169104  0.074520221 
  387000    1493.5295   -11038.528   -10575.392    7051.5344  0.074365999  0.074519104 
  388000    1505.1576   -11042.136   -10575.394     7102.843  0.067721396  0.074470199 
  389000    1471.8859   -11031.821   -10575.397    7155.3238  0.074404253  0.074469728 
  390000    1490.2932   -11037.542   -10575.409    7206.7725  0.073996171   0.07446637 
  391000    1500.4027   -11040.694   -10575.427    7259.3989  0.073542677  0.074459865 
  392000    1474.7104   -11032.676   -10575.375    7311.5951  0.074963338  0.074463386 
  393000    1471.0552   -11031.558   -10575.391    7366.1284  0.067021382  0.074411705 
  394000    1507.1035   -11042.792   -10575.447    7417.0593  0.072296071  0.074397115 
  395000    1465.1403   -11029.709   -10575.376    7470.1926  0.074028986  0.074394593 
  396000    1520.5813   -11046.954   -10575.429    7522.1708  0.072021348  0.074378449 
  397000    1491.7985   -11038.029    -10575.43    7575.7095  0.071677331  0.074360198 
  398000    1493.1219   -11038.458   -10575.448    7624.0845  0.077125438  0.074378756 
  399000    1499.8317   -11040.543   -10575.453    7677.3084  0.069230967  0.074344438 
  400000    1472.4904   -11032.031   -10575.419     7731.939  0.071767307  0.074327371 
  401000    1495.4902   -11039.164    -10575.42    7783.1988  0.067347004  0.074281447 
  402000    1493.5408   -11038.589   -10575.449    7833.1343  0.081132252  0.074326224 
  403000    1487.4652   -11036.687   -10575.431    7883.3054   0.07907802   0.07435708 
  404000     1475.673   -11033.034   -10575.435    7934.3467  0.076544098  0.074371189 
  405000    1488.1865   -11036.907   -10575.428    7989.8624  0.072312881  0.074357995 
  406000    1506.5135   -11042.599   -10575.436    8040.1942  0.077370339  0.074377182 
  407000     1463.469   -11029.261   -10575.446      8090.07  0.075463161  0.074384055 
  408000    1509.1533   -11043.419   -10575.438    8142.4749  0.072664866  0.074373243 
  409000    1436.0882   -11020.749   -10575.425    8195.3458  0.075591409  0.074380856 
  410000    1521.8976   -11047.407   -10575.474    8249.7993  0.077882099  0.074402603 
  411000    1503.5962   -11041.738    -10575.48    8302.4672  0.069845344  0.074374472 
  412000    1474.6236   -11032.737   -10575.464     8353.179  0.077612745  0.074394339 
  413000    1454.5658   -11026.506   -10575.452    8406.3774  0.080437994   0.07443119 
  414000    1506.1957    -11042.52   -10575.456     8457.465  0.079721205  0.074463251 
  415000    1460.2243   -11028.244   -10575.436    8506.8557  0.088163982  0.074545785 
  416000    1496.3955   -11039.489   -10575.464    8558.7789  0.081770663  0.074589048 
  417000    1489.2812   -11037.288   -10575.469    8612.0125  0.078113989   0.07461003 
  418000    1467.2026   -11030.438   -10575.466    8665.5336  0.070800888  0.074587491 
  419000    1518.6336   -11046.392   -10575.471    8714.8685   0.07891204  0.074612929 
  420000    1527.7457   -11049.215   -10575.468    8765.6009  0.077390614  0.074629173 
  421000    1494.6835   -11038.948   -10575.454    8815.5319  0.084094432  0.074684204 
  422000    1506.2765   -11042.549    -10575.46    8864.7721  0.079854076  0.074714087 
  423000    1478.7384   -11033.985   -10575.436    8916.8182  0.076796794  0.074726057 
  424000    1503.0363   -11041.536   -10575.452    8967.1788  0.074861116  0.074726829 
  425000    1490.8191   -11037.749   -10575.453    9015.7539  0.077367459  0.074741832 
  426000    1467.4496   -11030.522   -10575.474    9066.7896  0.073562009  0.074735166 
  427000    1483.2178   -11035.391   -10575.452    9116.9399   0.07775975  0.074752159 
  428000    1472.8614    -11032.16   -10575.433    9170.7783  0.070214479  0.074726808 
  429000    1478.7708   -11034.014   -10575.454    9222.4088  0.070711135  0.074704499 
  430000    1480.3065   -11034.491   -10575.455    9274.7308  0.073147582  0.074695897 
  431000    1518.5042   -11046.335   -10575.454    9326.7855  0.077951878  0.074713787 
  432000    1491.9538   -11038.097   -10575.449    9377.0052  0.081494449   0.07475084 
  433000    1514.3924   -11045.049   -10575.443    9426.2758   0.08146578  0.074787334 
  434000    1517.0929    -11045.89   -10575.447    9478.0287  0.076914963  0.074798835 
  435000    1510.8025   -11043.945   -10575.453    9530.1842  0.079503075  0.074824127 
  436000    1479.7915   -11034.317   -10575.441    9581.4496  0.073090816  0.074814858 
  437000    1488.5836   -11037.066   -10575.464     9632.117  0.067632247  0.074776652 
  438000    1474.9011   -11032.851   -10575.491    9685.4391   0.06886012  0.074745348 
  439000    1516.0598   -11045.591   -10575.468    9739.0521  0.066854626  0.074703818 
  440000    1522.3782   -11047.571   -10575.489    9791.5745   0.08003033  0.074731705 
  441000    1504.2056   -11041.931   -10575.484    9841.6965   0.07538713  0.074735119 
  442000    1499.7765   -11040.531   -10575.458    9891.1536  0.083645711  0.074781288 
  443000    1501.7514   -11041.151   -10575.466    9943.6609  0.077435087  0.074794967 
  444000    1488.8343   -11037.154   -10575.474    9994.7225  0.079762859  0.074820444 
  445000    1470.3817   -11031.404   -10575.446    10045.169  0.078341864   0.07483841 
  446000    1497.6882   -11039.899   -10575.474        10097  0.080149059  0.074865368 
  447000    1512.7401   -11044.535   -10575.442    10147.818  0.077829584  0.074880338 
  448000    1496.0867   -11039.374   -10575.445    10200.476  0.075483608   0.07488337 
  449000    1475.7939   -11033.037   -10575.401    10252.487  0.079974791  0.074908827 
  450000    1471.6687   -11031.791   -10575.434    10300.694  0.075266521  0.074910607 
Loop time of 44557.1 on 1 procs for 200000 steps with 2400 atoms

Performance: 0.388 ns/day, 61.885 hours/ns, 4.489 timesteps/s
98.6% CPU use with 1 MPI tasks x 1 OpenMP threads

MPI task timing breakdown:
Section |  min time  |  avg time  |  max time  |%varavg| %total
---------------------------------------------------------------
Pair    | 44377      | 44377      | 44377      |   0.0 | 99.60
Neigh   | 152.69     | 152.69     | 152.69     |   0.0 |  0.34
Comm    | 13.084     | 13.084     | 13.084     |   0.0 |  0.03
Output  | 0.0058375  | 0.0058375  | 0.0058375  |   0.0 |  0.00
Modify  | 10.251     | 10.251     | 10.251     |   0.0 |  0.02
Other   |            | 3.878      |            |       |  0.01

Nlocal:        2400.00 ave        2400 max        2400 min
Histogram: 1 0 0 0 0 0 0 0 0 0
Nghost:        5151.00 ave        5151 max        5151 min
Histogram: 1 0 0 0 0 0 0 0 0 0
Neighs:         0.00000 ave           0 max           0 min
Histogram: 1 0 0 0 0 0 0 0 0 0
FullNghs:      271918.0 ave      271918 max      271918 min
Histogram: 1 0 0 0 0 0 0 0 0 0

Total # of neighbors = 271918
Ave neighs/atom = 113.29917
Neighbor list builds = 10597
Dangerous builds = 0
print           "Running average thermal conductivity: $(v_kappa:%.2f)"
Running average thermal conductivity: 10.61

# unfix NVT
# timestep .1
# fix NVT all nvt temp ${Tsim} ${Tsim} $(10.0*dt)
# run 100
write_data	Therm_${Tsim}_restartpoint.lammps
write_data	Therm_1500_restartpoint.lammps
System init for write_data ...

Total wall time: 27:52:06
