LAMMPS data file via write_data, version 29 Sep 2021, timestep = 450000

2400 atoms
3 atom types

0 21.60614701247121 xlo xhi
0 32.40922051870682 ylo yhi
0 43.21229402494242 zlo zhi

Masses

1 18.998403163
2 6.938
3 22.989769

Atoms # atomic

473 2 1.579950522960214 0.22791158565266761 42.257682394626244 1 1 0
850 1 1.7678995191176272 2.7839322307683245 1.7776483733486226 -2 0 0
1353 2 3.059661448578827 1.5998002903570017 1.06449799326436 1 0 1
1759 2 6.151548909947859 3.774281964656714 0.43091171576999554 -3 3 0
1427 1 3.722774200696519 0.8393995208675361 2.702338901438633 -2 0 -1
62 2 2.270624563803001 32.33242798776902 3.025525483893731 0 1 0
111 1 6.79150176383105 0.036994445280884844 4.078882512413755 0 1 0
1997 2 5.12651638902495 2.1504624088687776 2.897064852300382 3 0 0
1628 1 8.411266374735636 2.043075469264729 2.9257262728319042 -1 3 0
1887 2 9.228190094633664 4.093583684877602 1.9033617513567973 -2 -1 3
844 1 8.100187504752641 4.360103267410506 0.31438725326771705 -1 0 1
1041 1 13.331017415474395 4.430728512177185 3.466448166402641 0 3 1
1281 2 11.927693177205628 4.326491467345184 2.1565612495260975 -1 1 1
1732 1 15.154089966804184 1.7908585618318342 2.5543709492078026 1 -1 1
2205 1 12.38990313882629 1.8297190241175756 2.1002839630610395 -2 2 1
1395 2 11.140195049039448 1.1783146598573944 3.898131705691395 0 -1 1
776 2 14.24582212293558 2.90163944270568 1.3508327009685028 2 -2 1
1909 1 17.501448862211582 4.062654090002224 3.5846815802229286 -1 1 0
479 2 18.48543880224534 2.949123456993503 2.790541589879116 2 0 0
1360 2 18.88395178880947 2.3122217413575394 42.89633450160381 0 0 -4
2213 1 2.7229739033276608 1.6595276351928085 42.56997349410304 1 1 0
321 1 18.72686014770049 1.9541474743328442 1.3766239394814164 1 1 0
485 2 19.706239636730942 5.197312252865215 1.2337924170226608 -2 0 -1
2069 2 21.387740576637817 3.0686359042265905 1.9859237054101286 0 1 1
2287 2 0.07463987378554643 7.377946382266394 1.6410504567981516 -2 1 2
1449 1 3.647969397575032 6.571802495688617 41.60379052894181 1 0 -1
2221 1 3.4169229246392536 5.441291879621775 2.089336122260554 3 1 1
1481 2 5.375374984452652 6.121413414310629 2.01968176218223 2 3 2
1533 1 6.2180005335507005 7.833216425181912 1.6277720575797345 0 0 0
605 1 5.090847337299836 2.7522271176384274 1.3739605931013132 1 0 0
891 2 5.961419138584056 7.378398746609312 42.95914392728549 2 -1 0
76 2 6.3218827942432965 7.538463750443338 3.931950519959387 -2 0 0
1279 2 10.615360487159768 5.266759722614399 4.422110498311434 -2 1 1
723 1 6.542150289327417 5.241039291019319 2.9546482866599315 -1 1 1
280 2 8.070488595471199 6.112451160672058 42.78073695300627 0 0 0
1221 1 11.195459421129934 3.5334030412156205 0.8293658796811201 -2 -2 1
1308 1 10.316264416011267 5.144537649918967 2.8000984856515085 2 0 1
41 1 12.437304686654414 9.316678286763988 1.3785021541074 2 1 1
1753 2 14.551961138100344 6.283399350422929 0.2574627319743845 2 0 0
1737 1 14.560735296892984 4.54495597027107 0.8873997937182717 0 1 0
1605 1 20.2660215506293 3.941031988803031 2.910586341780551 1 0 1
1084 2 15.44425413068967 7.6339092631146155 2.426121524793396 1 1 -1
1437 1 18.319244646258056 4.302718718926032 0.3861756236729019 -1 1 0
1201 1 17.936139364249776 0.4676929785698009 3.692686760498615 -1 -1 0
357 2 16.772671504770365 4.511861065561568 42.649419643135 2 2 0
863 2 18.205711752558333 6.291573956465552 42.95136048730009 -3 2 -1
1898 2 1.1981836160873152 7.826480185101094 4.732882454675347 -2 0 1
1233 1 21.31780313886423 9.590987274452822 4.242968779723539 1 -2 -1
131 1 2.5260187824077556 10.426879435433998 4.343002105471385 4 -1 0
474 2 4.506831931615204 10.107698608122456 4.615318942370727 -2 -1 0
2358 2 3.250419953581602 7.579749961900571 3.0580410098349073 -2 1 1
1890 2 8.46560413469586 12.428975223225676 42.64384283393668 -1 -2 -1
2238 1 9.324256608403898 10.158626356609002 1.3958478202625801 -2 2 0
1014 1 8.583442206407819 8.819684595403517 3.467139889011879 0 0 -2
767 2 9.659280023547884 10.32173006887632 3.357050067716875 3 -1 -2
2354 2 8.137543522744673 8.658996200286142 1.633376908140917 1 1 1
1882 2 12.73343880595334 8.240472286442749 2.684336351700061 1 -1 2
2002 1 14.227566647627333 11.322717908787542 2.5099766631415665 -1 -1 0
1899 2 13.892424819051318 5.642712485039544 2.3442516482156854 0 4 -1
1888 2 13.17855769749132 8.20635767528564 43.14840905270955 -3 -2 1
2108 1 13.721707241007916 7.093720267308418 1.6103193275082075 0 0 1
718 1 16.155063031116544 9.41984393820738 1.6322965001282939 -1 -1 1
480 2 15.285357151987208 11.939149497818303 1.4314959242651817 -4 -1 -1
336 1 19.689490531064674 7.132647495416329 1.6094659875930872 -1 0 1
1195 2 20.703351112307068 10.733398621467638 1.3580054716014118 -6 1 2
1094 2 19.395131858672425 8.504687085679757 3.2885537615810936 2 0 1
1901 1 18.9425114396252 10.220749749055653 2.0135895079964303 -1 0 1
1268 2 3.62777808791828 11.239570068092803 1.752402665335015 0 -1 2
1920 1 0.9792989392872693 9.968239422351557 1.4151033893690919 -1 -1 1
867 2 1.393368396571107 13.730068280653397 1.6096987792613353 3 0 1
1433 1 6.233183721961814 14.263707164735827 1.51003694028332 3 0 0
2306 1 5.933471023305259 10.74937122271227 1.4028413452886996 -2 -2 2
1207 1 4.937716670923874 11.728531151423645 4.065473805384624 1 -3 1
1874 2 6.520238021291173 12.28849946590369 2.5230043832980256 1 0 0
971 2 9.817364141998398 12.050550823569115 1.7272900708138763 1 1 0
409 1 10.236811967849842 15.469739415075882 1.9468656241275626 1 0 0
535 1 8.05143954752165 12.798383341691066 2.2642276291508017 -2 1 1
951 2 8.115937466250935 14.617605204656932 2.4270418808557297 3 2 0
37 1 9.922240503052972 12.860527479394042 0.25018005082603206 -1 -1 1
873 2 16.05959383859783 9.403451089255698 42.834510558061424 -2 0 -1
75 2 14.299096033719614 13.009150172573262 3.470425660783535 -2 -1 0
1012 1 16.609651075994122 11.8773453825437 3.043491371388773 0 -1 1
714 1 16.832663336060545 12.543356073578968 0.38234047790028536 2 0 0
1405 1 14.659520007784243 14.420756914983519 41.90989840400463 -1 1 -1
1925 1 17.47784845048494 15.007706596084104 3.06034211307744 -1 0 1
1179 2 17.900530233679635 11.425059073432811 1.133770947011419 -1 -1 2
181 2 17.14843936958796 14.501455661345334 41.98586096715938 -1 -1 1
2179 2 19.540614185700147 9.558996830032127 42.910503387112065 -2 -1 -1
342 1 18.688673245341818 9.147645518950549 5.120740650387006 0 1 -1
829 1 0.38775356483369383 12.269931038068412 2.8257569255092405 1 0 1
2185 2 20.797504827142884 12.949616027586258 4.212824996663319 -2 1 2
275 2 0.9501967144166955 10.416249423662615 3.284114886793141 4 1 1
2310 1 3.182271050414323 12.860548196040893 2.053800653138248 -1 0 1
1209 1 1.7643170212059176 16.119207952355836 1.4980284278178142 2 -2 0
487 2 21.298120592520444 16.72598988844034 1.299674901399322 -1 0 0
7 1 4.281298116687889 15.513273241906482 3.4279391561541273 1 -2 0
1153 2 4.474921451533493 14.133501423312094 1.542600283319642 -1 -1 0
299 2 3.858834042439128 15.448757101793259 5.697303757721799 -1 0 0
1122 1 8.3258954169541 14.616620518473532 42.358069447758204 2 0 -2
1717 1 7.690180534404979 16.233437231056005 1.9644051547667911 0 -1 1
672 2 6.5020507458319905 14.597090671651372 43.02224511528023 3 -1 -2
1482 2 9.887493540330592 14.93773887169052 0.15146364678223173 0 0 1
826 1 9.875754983526996 18.109923490339703 3.730239466997966 0 1 1
1698 2 9.799211066177394 16.3141853680242 4.191686587008386 -2 3 -1
481 2 11.275508613430116 18.91069077724835 2.608384560207311 2 4 0
2092 2 11.519518663260698 16.195948094605896 1.0561255137462362 1 1 0
745 1 12.867923872172872 16.75639807140866 1.8800671593412008 0 1 0
1181 2 14.540804705696207 15.506526534267573 0.6790345787388062 1 3 0
289 2 17.60914842238012 13.753281510835759 1.7245669119472622 0 2 1
164 2 15.731981399612945 17.27347727056241 2.046109177730226 -1 -1 1
1627 1 21.471503638310928 14.353457678185618 0.434614673947074 -2 0 1
115 1 20.280234122739905 18.951535103488375 1.272074839288068 1 -1 -1
1777 2 18.462949052351842 17.341915141954136 2.2876041413821273 1 -1 0
426 1 19.96732608713211 16.05459510775857 2.1350667858497165 -2 -1 0
1980 2 18.106086463635126 19.635654896918634 0.48848282256021186 -1 0 0
2150 1 4.822360001995742 20.929839796674262 1.0266624319051338 -1 -2 1
1775 2 2.295479469101693 17.783448880834673 0.9866589587996896 2 -1 2
2180 2 4.900593627962634 22.18376064723397 2.305868929429589 0 -1 1
315 1 2.811261370058999 17.338299736397083 41.88283334390423 0 0 -1
419 1 0.16680811060006487 21.41763797963401 3.189360927853425 -1 1 0
1876 2 6.553254497965926 21.28990248366537 0.6308804592653846 -4 0 3
31 1 8.533432620189037 19.15438303722672 1.226640050117387 3 -1 0
1689 2 9.395303898619751 17.06018493542454 1.715941956491925 0 0 1
1656 2 4.405226279528579 19.23519800688161 2.068249087640315 -3 -1 0
1520 1 6.079876331678882 23.005367126144886 1.0374933878967567 -1 -1 1
1808 1 6.109757579343543 18.55218375965102 2.338717189062525 0 0 0
561 2 10.421836017298643 19.442446812022162 5.125482543779727 1 0 0
726 1 11.837420967906056 20.53186122578993 3.344393986158358 0 -2 1
1573 2 6.989030400458604 20.462175132946037 4.554743870072006 -1 0 1
298 2 12.158778063272264 21.820473586972174 2.2652423272288833 2 -3 0
216 1 15.090200836107535 17.342862564759066 0.30826986370339016 -1 1 1
2031 1 13.986136237642171 20.965346860650346 5.593391232570904 1 2 1
2163 2 14.811581941280247 22.38859648314985 1.1287337002504898 -1 -2 0
969 2 13.080820238532713 20.92685658264092 42.478565945453546 -3 -1 0
1260 2 16.03101906731668 19.90803324399054 2.3073762335270533 -3 -2 0
1040 1 14.915580182194596 21.29217427322358 2.8534366117601015 1 2 -1
1390 2 16.410136138926333 21.6642298064918 4.115916648162265 0 -2 0
1228 1 17.235026263360794 18.592443203493744 1.7384219673166457 0 -1 0
990 2 1.7440186121369752 18.30726263611892 4.250188539531229 -3 0 1
2022 1 16.26814713693972 20.66827083791054 0.3544115831999352 -1 0 1
644 1 20.236194935898794 22.106992327105488 5.245229268326073 -3 0 1
599 2 20.937162551003606 21.941729723577577 1.110427858152745 0 0 0
486 2 2.632903030402558 23.93293209452863 3.1262892282075234 3 0 -1
1502 1 2.18298589197067 22.486990462614884 1.8306252130913425 1 1 1
768 2 4.997773019281502 24.499550208233863 42.98231899582149 0 -1 -2
2088 2 7.276478045486597 23.614261116374703 2.2806484456184886 0 2 2
1875 2 4.370146519599682 21.576586098082846 4.96157640343018 0 -1 0
830 1 6.012297811325394 25.958240436076206 41.671632918868724 0 -1 -1
1695 2 10.636468406141216 24.322873513728275 2.8510793626799797 0 -2 1
145 1 10.225036444722111 24.316195256727124 0.8443203584112478 1 0 0
1903 1 13.560833901359812 20.46725925597405 1.0112432260444204 -1 -1 0
1240 1 12.00889290277036 26.32703379652149 2.282664033093736 1 -1 1
1343 1 14.116939894663968 23.94741163157277 1.084203837068197 -3 0 -1
2091 2 13.108006107923286 25.433892180454453 1.2776302485238522 -2 0 2
1684 2 13.899652535040701 24.297041144809906 3.173758863579789 -3 0 1
346 1 0.30300920192271796 25.735384787114487 7.979271955047124 2 -2 0
947 1 17.859243046428535 25.824474529259316 1.095196270058263 -2 -1 0
775 2 19.04157672581305 25.59619376425338 2.65348546308027 5 -1 2
1985 2 2.505465767107333 22.10266671264346 42.5531904168845 -1 -1 -1
84 2 21.26295819651255 28.082948944904896 7.629132417357399 -3 -2 0
1218 1 1.967363686238449 27.73035500469868 1.2206907745757603 2 0 1
2263 2 1.3270391754333606 23.793827496248074 1.1464304967014256 -2 -1 1
1725 1 1.4950479697757948 25.14539736482748 2.4273443725899027 -2 1 0
123 1 4.220316132772452 25.635439829960507 0.8678915689329255 3 0 0
725 1 5.921583683838777 28.38517201970978 1.041601062412744 4 -2 0
379 2 3.02303877942764 26.51413503387066 2.1350558148800407 -1 0 1
524 1 7.433248649472229 25.307337059093925 1.6092686945643693 2 0 -1
1088 2 5.6810141762659985 25.873639698441934 2.242345576380661 -2 -1 1
2037 1 9.262083897934348 28.76055845894481 3.302949147371551 1 0 0
1116 1 8.996566342380321 27.723041976964932 0.7120771534392257 -1 0 2
898 2 8.928179403967608 25.49552829575014 0.16820889074875725 -1 -1 0
2392 2 8.364708679306975 27.8991691621523 42.41510187620928 2 -1 -2
184 2 12.712433054744885 27.697664321973775 1.5559565671512412 3 0 -1
1339 1 11.467010103876497 29.139742575348993 1.1668858542408724 -2 -3 1
2297 2 13.52534631365864 30.33906749034645 2.0390583599547893 2 0 2
1183 2 7.749942863973381 28.80786707026249 2.073981050027136 0 -2 0
2170 2 9.884270967834343 27.02717451206659 2.058235662746708 -4 0 0
2014 1 9.861952082414161 28.92791789241856 41.67124858372619 2 -1 0
2020 1 14.182784562126686 26.68723344082924 0.8591624084633082 -1 1 1
2033 1 18.186421921037535 28.840905211244213 0.7499780502934225 3 0 1
2387 2 17.599910086052336 28.193913286872185 2.407492827456084 0 0 1
465 2 16.301107385703286 24.996129700316903 0.5532507609225712 2 4 0
1419 1 20.779482879941284 26.164252643514388 4.998249672744612 0 1 0
932 1 18.206491563040508 26.86081240706993 4.459689703775405 1 0 0
1774 2 21.564341861283022 26.168979667034908 3.203768871950278 1 0 0
1838 1 19.164591926935547 28.629291406421082 3.266410150030084 -1 1 2
1718 1 1.680275190899779 32.128555543279354 0.8351087041766287 -2 -1 1
685 2 0.11568712070243499 30.896640557995788 2.0820827828465074 -2 -2 -1
1848 1 0.16385462969176828 29.12242943452852 2.6356995206603075 1 -1 1
1121 1 21.067717686602666 29.30880170139278 42.98519779915547 1 -1 -1
1577 2 8.364234982033524 0.5219082663519897 2.3093013980974173 1 0 -1
1304 1 5.627791466756868 31.99617864593589 0.013288243212325388 0 -2 0
1870 2 4.894421206069741 29.20891453765067 2.0503501242720916 0 1 1
44 1 4.4417206096200434 31.008413662167627 2.4819380818583476 3 -3 0
1134 1 6.721120253603908 29.608862245689163 3.631635162856015 3 0 0
455 2 9.812204177429122 29.24974799912552 1.4570440670553149 -1 -1 0
859 2 12.395452150963456 0.855492614820968 0.46174379150182504 0 0 1
1225 1 9.234623182380771 31.320588098238016 2.5341479559709454 -1 -2 0
1850 1 8.49285843300575 0.3854140622430921 0.26147523667095435 -2 -4 1
621 1 7.6660052396352025 30.117424141081962 0.464301272423541 -1 -1 0
51 2 9.20200532153222 31.335279471012406 0.7670708839998792 3 -4 0
2141 1 11.534639955999554 29.90214885641931 5.600230120406481 -3 -1 1
2050 1 13.612575884321782 31.647648662486475 0.8124394789353601 0 -1 0
471 2 10.918070475871922 31.00461541009926 4.39764171251987 0 -1 0
1987 2 16.304391720171594 1.422437041063211 4.052852311414339 -1 1 -1
1165 2 16.743445428471116 0.7671374677233166 1.2078270068638741 -2 1 0
2073 2 14.844842507434173 31.024140266410097 42.88456818877557 -1 -2 0
192 2 15.254886247312287 27.282030223422044 2.3370491722331854 -1 -1 -2
308 1 16.439588066772917 31.28088322210125 0.8759572709007324 2 0 -1
785 2 17.485497433741266 30.313589285513675 42.73925277468371 -3 -3 -1
1297 2 19.91329015196943 28.611145026127534 1.5196099826203096 1 0 1
1202 1 18.864892910661695 30.628829019871908 41.527016035175706 3 -2 -1
1211 1 20.109202058279553 31.66076454803112 1.1407371617967685 0 -1 0
1659 2 2.5967393286105205 4.479606268114234 3.5202370253304904 -1 -1 0
570 2 0.9030051921283537 31.96994843442906 6.937820818524318 3 1 -1
213 1 0.1969596938130191 3.675157170549462 6.109490649258736 -1 -1 -1
2317 1 2.7383142013794775 2.8363856846383753 7.804889184747976 3 1 2
197 2 5.94893758329911 1.004700664010295 5.527968142671961 1 0 -1
203 1 5.791035215340461 2.6380056407163313 4.455735464970076 2 0 0
354 2 8.49014820048596 0.18614595917000312 5.2031543102383075 0 -1 3
90 2 7.550504024195837 3.4140666985919585 3.3069447252257644 1 -1 0
920 1 8.360821368634213 1.925106436064226 5.961637822842701 1 1 -1
1524 1 14.765444584369897 2.191362997301666 5.3903247428042755 1 1 0
71 2 12.415073610835103 2.8890790650532803 6.427372226097009 0 0 1
119 1 12.636125363137563 31.017963011760088 3.610202409994827 1 -1 0
1171 2 13.689507528655216 32.337499276498136 4.189240623850944 4 0 0
1923 1 10.227971333104291 0.035729684922650495 5.27798941523718 2 -1 0
645 1 12.644337746881469 1.3509965406340467 4.896407559523624 1 -1 0
1095 2 14.562342337447719 3.2760683230215655 3.943023218169873 -2 1 3
2049 1 15.372672727668682 32.078088466953716 4.8625157814964535 -1 0 0
1557 2 17.448904841484655 31.105417723699887 4.615171455348879 2 -2 0
602 1 18.100341591805908 1.1458932583331234 7.447316174326071 -1 -1 -1
2025 1 19.28683949185737 31.459658936175547 5.749210866558315 -1 0 1
2360 2 14.392927644065646 2.531653723000089 9.512925571355089 0 0 2
982 2 19.246518939726826 5.6380316803376465 6.9649897173773185 -1 0 0
3 1 21.351000504044315 0.8714477436639964 6.431885067794105 3 0 0
1884 2 20.98038229054772 2.475023546096209 6.950521121496387 0 -2 1
1610 1 1.0552213099766727 5.074231703283584 3.4430983868987752 -3 2 0
1632 1 2.7904901592972857 5.214585291640845 6.744780350237554 -2 1 1
1053 2 4.77531588666483 8.195508371851531 5.179631609982125 0 1 -2
1416 1 3.43287864533701 3.8198415385558433 4.712573998618416 -1 -2 2
1957 2 7.818526018362195 5.610643558933242 8.595190754896995 5 -1 0
2202 1 4.735179464847446 6.361256108868002 4.428598262565423 0 1 1
185 2 5.068996757197744 4.377439142360489 4.837827914518285 3 -2 -1
1619 1 8.802116409465272 3.9621193992935617 4.86247047885459 0 1 1
923 1 11.967983922749815 6.862136662216413 3.774237837583898 0 0 0
1455 2 9.395008945639658 3.0246075542499216 6.2853592209546045 -1 2 1
609 1 14.153901997159206 8.686602790604733 3.8450334574419998 -2 -1 0
533 1 11.609392057560449 4.341537344113651 5.698253685166147 5 2 0
2251 2 13.555136462672587 5.367654606456987 5.769260409166932 -2 -1 1
1633 1 13.841688569189728 7.327003276385776 7.024671967281628 4 -1 1
186 2 15.740966433107088 7.31185776206935 5.364935355651323 2 -2 1
1626 1 16.536833057954723 7.7207785295068225 6.974370654643748 -3 1 -1
2359 2 18.191491095514692 5.508388525125003 4.025318769543286 -2 2 0
1827 1 19.68022970624376 6.134873784407874 4.950299263249206 2 0 2
568 2 1.173896693409887 5.1366877825658195 7.9126774370366 1 0 0
1868 2 20.987969644850114 4.924761266341305 4.537788661196177 0 1 0
2367 2 2.755837249310117 9.165238469842361 7.631890726275395 4 1 1
1702 1 1.6180187264298571 7.43050507436849 2.9042198407430577 -1 -1 0
349 1 4.663018978606058 8.618858653492975 7.008356164362572 -1 0 1
1714 1 1.964554335411599 10.6335142004572 8.23027508704435 0 2 1
552 2 1.2746374035211836 10.492728797646702 5.605492418006131 1 1 0
1114 1 4.423987594991824 8.73078944271863 3.468508884514232 1 2 1
1760 2 10.532611584042478 7.886055477314098 4.599588329993213 -1 -1 0
1541 1 9.52753112184046 6.4556387701902285 5.020389297010394 0 1 2
1273 2 7.645186567714851 5.774139476732613 5.9693116110933495 0 -2 0
1822 1 7.860926498636877 10.460367250621013 7.437435811550332 2 0 0
1007 1 8.976370203427829 11.402538589793302 4.89336235201656 1 -1 0
1277 2 13.38662941247022 8.406843895654351 5.493263748620125 4 -2 0
1616 1 11.215248785190644 12.711643040959544 5.827505996325203 4 2 1
467 2 9.490083007447916 7.462178021713455 6.665812962260042 4 0 0
328 1 11.037168728379669 9.520202770646558 4.537787987390545 0 1 -1
344 1 13.11216991921637 10.38692107143338 6.545671861995109 2 2 -1
1776 2 12.191772116420639 11.058770260655177 8.06584171919462 4 1 0
1351 2 15.156231123809322 10.618755694061973 6.801653578516633 0 2 2
521 1 15.799945897869813 10.723257768513111 5.243321555166808 2 1 1
1497 2 16.341825908793584 7.765299477808181 8.561895728978113 -1 2 0
1617 1 16.887183712258953 6.955904008077698 3.8268301792925863 -3 0 1
798 2 19.993250119193014 10.405971678863732 5.529329996243687 1 -2 -1
909 1 1.554615858100288 8.75568638460476 6.082234232139536 0 -1 1
2017 1 19.583955912414176 9.780522860317614 7.091634513727919 1 1 0
1693 2 20.986832850911256 7.7542177336538405 8.787864946211604 1 1 -1
1459 2 1.788686403875687 12.909103266737004 7.759745663733471 0 3 -1
1033 1 3.0067758861951157 14.025045566758367 5.019867346834411 0 0 1
1697 2 1.1056880899551904 14.744395699880478 4.962674672716567 1 -1 2
1036 1 0.4923279085234291 12.4110130601689 6.08407258843659 0 1 1
1996 2 5.29144036063194 12.51137153645342 5.678512889621445 2 0 1
529 1 6.4366112310813355 9.267606068336294 5.156468811130759 1 0 -1
1669 2 12.115832191426119 11.120233854442795 5.029842990929117 0 0 0
498 2 10.821463839416804 13.417699133465096 4.270117634436845 -2 1 1
2348 1 8.694039806036354 14.755523588035802 4.177722600388222 -1 0 0
443 1 14.134247600677622 13.705496260119078 1.6101515889212294 1 0 -1
158 2 16.25884489591485 14.143631551383194 9.623449272555751 2 2 0
890 2 15.459199006518968 10.274489276913421 3.636978855806616 -2 -1 0
221 1 11.116823420110082 12.0561899600879 3.081827584702014 0 0 2
239 1 13.97660724792987 13.527060459938454 5.125059227846784 -1 -2 0
711 1 19.534427082880885 13.136066147002579 2.502903837889252 1 0 1
1159 2 17.62842165986174 10.612218963707784 5.577275214612165 -2 1 2
1468 2 20.04956723579748 14.286077898795659 1.1893259456266168 -5 0 -1
2095 2 18.484217265613193 8.29322439066497 6.553291148283496 0 1 1
218 1 20.42314663168149 14.490831188546364 5.114859067589569 2 -1 -1
427 1 19.447201338405257 16.785741750744226 6.848223689691579 -2 1 0
2259 2 15.396562376170998 18.90742404893526 5.467439134398454 1 1 0
1 1 1.0442478106587887 16.21851452675895 4.149535877125559 -2 -2 -1
470 2 2.0773185925261815 16.917330147282893 7.098042975006919 4 1 1
300 2 21.317757309702223 19.95340689196416 2.4537335659530535 2 0 1
1464 2 3.4063303550130506 12.569297066606678 3.9842772943028053 0 1 1
1745 1 4.2218074440735505 17.440419419030494 1.1711644246091455 -2 2 1
91 2 6.009659386978443 16.73146358000206 2.610054475137817 -1 0 1
1027 1 5.654996162463395 14.350106752600217 6.194456360347718 1 1 1
348 1 3.709535728362135 15.778749484521033 7.569447085876264 0 1 0
1381 2 7.741017937011998 18.700484922689938 2.9269586244889125 0 0 1
2113 1 10.15509682693492 17.67158115010813 6.533606609684559 3 0 0
540 1 6.5487859915002 17.53777303294323 4.609845278923894 1 -1 -1
2085 2 12.243645202522844 17.839262165985257 7.027865463756398 -1 0 -1
1773 2 6.996306020190169 15.907937490003325 4.687798692296875 3 -1 0
217 1 12.002790899666937 15.118389436588089 4.751404384740637 2 -2 -1
724 1 13.463408301494374 18.558301204894487 4.807163740120602 2 -1 2
1804 1 14.92484857188511 16.51841305956037 3.3991141854513898 0 1 1
1661 2 13.15476583174592 16.375181304483583 4.385204354408364 1 1 -1
1050 1 11.24467914164649 20.264677656302272 6.649360513713906 -3 -1 1
1532 1 16.484783695418287 17.427361096760094 6.929969996571811 -1 1 -1
1921 1 16.467431698237558 14.53855571030943 5.765087650150754 0 -1 2
596 2 17.26245679623941 13.495219309202247 4.0480185020784045 -4 0 0
600 2 17.451580967124485 15.985088058358249 6.685442149685264 -4 1 1
12 1 13.974945394736858 18.94135449444006 8.022487748874555 -2 -2 0
676 2 19.126313029270918 15.91144898480922 3.6678492900747046 1 0 -1
1267 2 21.01128273390754 16.309291540810275 5.503872624380174 1 -1 -2
1319 1 18.755762644138372 12.25024896492752 5.8248578564841695 2 0 0
811 1 21.479465889305942 18.92540429705325 4.242185280837743 -3 1 0
1563 2 15.93422832611183 18.48555236440042 8.14215110729052 0 -2 0
227 1 19.761942371291454 17.275644711511198 10.493804665679079 -1 0 0
1574 2 3.1957548399308693 16.55522342933571 2.8230522762306043 -4 0 2
802 1 1.7386108596381142 19.030825662696156 2.195908031508591 1 1 1
48 1 1.8161400238469565 21.150602003518216 5.690933529863341 0 0 0
662 2 1.9760633034534945 19.090917194712198 10.36476013356297 3 -1 -1
2004 1 3.391305993516494 17.82572099590393 5.551967728629503 -4 -1 1
2349 1 5.554136024381984 20.84305827843705 10.126963083721837 -2 0 0
262 2 2.4802216373896435 23.028909220792045 6.611216574914519 2 0 1
1521 1 3.689442720001054 20.597850716335184 3.6771251665928117 3 2 2
544 1 3.911392621665469 22.16462093895428 7.334604463050893 1 1 -1
661 2 8.043566488317168 21.30073920546439 7.334395421558118 -3 -1 0
1604 1 6.714601522068743 20.228047402413015 6.447646449413058 2 3 0
142 1 8.704169906401031 20.11289041271271 5.089986665662862 -1 -2 1
2063 2 10.57786275784772 19.14303662166058 8.409178653278927 -3 0 1
1891 2 5.515746111627128 18.75141869108376 5.677163976116781 2 1 2
47 1 9.720468652509245 22.491991227132925 6.800704842630262 -1 0 0
391 2 13.489325056200375 20.173610242924088 3.80703979119408 1 0 0
380 2 9.731361960388943 26.232115723621092 7.453631261241646 3 -1 -2
1368 2 11.289810960872392 22.30231615844095 6.28139141788574 2 -2 2
401 1 16.576252954723635 19.79731448048668 4.499948810597997 -4 1 0
172 2 18.8276135028541 18.878524051590297 10.839457052971683 0 -1 -1
1994 2 17.814108559567575 20.056903851747883 6.953687981185901 3 -2 2
1415 1 19.16212139055772 19.645779521770017 6.049553625886669 1 -1 1
1949 1 17.657607131732647 21.359268115468403 2.7980621439556064 -1 0 1
2330 1 18.560965300800095 17.431082389826006 4.03543331128139 -1 1 0
2273 2 18.770267262457715 19.25252751459333 4.511010775679531 2 -2 0
1886 2 21.4405157272282 19.722075758611272 5.949407184989711 -5 -1 1
677 2 1.730060999489734 20.690780749143325 2.5818758565353446 -2 0 1
805 1 2.9001278092665945 24.785296729090295 7.798612372234047 -1 0 -1
1798 2 3.4608954609161664 23.377803763742943 8.948863782406073 2 -1 -1
1588 2 1.1677583349605452 26.020193949702108 9.373557356848192 4 1 2
1450 1 2.0891202565436973 23.70365687950739 4.7739471388292785 -3 -2 0
637 1 6.204432653735785 21.738357572189287 3.9785765648679132 -1 0 0
1140 1 4.495144178588576 24.592727111851563 3.990555035256956 -2 1 -1
738 1 8.851835739898993 23.97283237806194 3.801255814391891 -1 -1 0
482 2 5.492439999763797 24.86047393774005 7.803950370789339 0 0 1
1372 2 9.244512818676965 23.94772286645911 5.813067012371343 1 -2 0
702 1 7.187986292968458 22.674911713197865 8.504240669831308 1 0 1
606 1 10.539182804624154 24.94490236327628 6.609576889571413 1 -1 -1
1270 2 12.359377285356247 24.995235672789335 5.774287271821713 -2 1 2
669 2 11.150741174670069 21.718561803708045 10.092084444830896 1 -2 0
350 1 15.7385638257726 22.358722524906423 7.534818350093491 3 0 1
1641 1 12.256729821793003 23.44664665247444 2.9951708672214488 0 1 2
1440 1 14.140440558464078 24.47372431883739 4.992338877641426 -1 1 0
499 2 17.149194098081033 24.65354776444928 3.8675651953645707 1 -1 1
1908 1 16.626750057630826 23.13852821343675 4.936511183876014 -1 0 0
236 1 17.216403047798803 23.87156450136934 9.625812252674388 -4 1 0
1274 2 15.159512819381918 22.833619959901373 6.109836823069835 -3 -2 2
146 1 19.150538124400796 24.14951000267372 3.5835120248709007 0 0 -1
2110 1 15.514526568902136 25.78499420772321 7.50553774370468 -2 0 2
143 1 19.142547091493498 21.969147255752887 8.346692281892532 0 -2 0
874 2 17.480653691322225 22.685279634480505 7.965336399631286 -5 1 0
1883 2 20.87899030816686 24.678466944891316 8.965413750804275 -1 0 -1
1047 1 18.795449181036286 25.425111755863114 7.01655787066779 1 0 0
1675 2 0.3928545521485524 21.863717763442015 4.958207414924267 -1 -2 -1
1590 2 3.1587498336499404 28.02554319366049 4.590042083169283 0 0 0
2038 1 2.612168416864295 26.94398688745966 5.643694196460912 1 -1 1
582 2 3.5397627174944892 25.291843203600482 5.278581063699134 2 -1 3
1512 1 4.29821923065126 27.42364142797679 3.019632590298502 2 0 1
1584 2 5.63005449336022 28.266222382908246 3.9373231631683776 1 -2 1
2086 2 8.1077961178466 27.66202182842714 7.9878534643157035 1 -1 0
1979 2 8.447274402548663 25.661111665253976 3.670961908209069 -2 2 0
720 1 7.302728829089147 27.119165770770554 3.9270484825889964 -2 -2 -1
1242 1 10.005287329248963 26.28215507224422 3.6716589155342483 0 1 -1
2395 2 8.242778043751295 28.33768257066317 4.6915425975022504 0 1 1
67 2 12.854265501946898 29.37365712642224 4.647071645979159 -2 0 0
2045 1 15.596350624819737 25.335911728631242 2.9490327377670362 1 1 0
353 2 15.575010797344966 29.67664921894242 4.864006392588833 -2 -1 1
1212 1 16.90752048933527 30.365291582535757 6.449230456738278 4 -2 0
1256 2 17.286625787963622 29.3816202116535 8.340946431324676 -2 -1 0
2021 1 19.77889068988884 28.128809156591313 6.626778413774934 -3 -3 1
2371 2 20.56014559062925 28.31946617947666 4.711484625430847 -2 0 2
58 2 19.53214272409485 24.287965671458387 5.628020277055271 -1 -2 -1
965 2 19.58013990067874 29.943033126623124 7.040410564771501 -2 -1 0
74 2 1.1392808056957227 29.998113940359428 4.245415505531297 1 -1 1
1720 1 2.503329197905858 31.327110787932746 5.687011074241234 2 -1 1
945 1 0.6164599076117283 31.669834935626024 3.304926696476232 1 -1 -1
656 2 5.00458221810047 29.48150236870833 6.874494526245601 1 -1 -1
118 1 5.124942287434888 31.79016708762217 6.254271029875829 1 -2 -1
959 2 3.2645522191216045 31.69937352943263 7.604949014880226 1 1 3
956 2 5.99755563532808 31.841550835961474 7.927235804321726 1 -4 1
24 1 4.14139057501927 29.226384398781608 5.229361015087953 -3 -1 0
882 2 4.902016620346654 30.943369870195028 4.248490023271117 -1 1 3
960 2 8.002649091948882 30.716493478843987 3.8622821777396217 1 -1 0
1028 1 9.410621895545336 27.645252441969394 6.440449254767979 0 -1 -2
2346 1 8.378564134983993 30.094121916978516 5.518083495232328 -1 0 0
823 1 11.960621340285867 26.690690695203028 5.804979782178781 3 -2 0
368 2 10.060644985333134 29.454195270355164 7.094055786776465 -2 0 0
81 2 15.43025022188625 25.457322630099167 5.828607387165984 -1 2 -2
2250 1 15.889748612880485 28.808117037334014 3.46425326439001 -1 -2 1
808 1 21.583542494901998 30.005698269482153 8.239073501553255 0 0 1
1244 1 14.795798535342483 28.47190579725202 6.001748461674638 2 1 1
445 1 13.448318956166293 28.821442672631683 3.120982614126466 -2 1 0
1175 2 14.89477802810857 0.6661352700974035 6.510409799780474 -1 1 0
793 2 20.027820830378868 0.4669810161590298 5.426168044068035 2 0 -2
2325 1 0.24754446952958392 28.977692522076996 5.466235892158684 2 1 2
1365 2 2.7240674833229956 3.386412288453264 11.56489987748379 3 2 2
2071 2 1.2816501031583223 30.13828012369363 10.339152267753008 -1 -2 2
1493 2 1.6112213154583834 2.3820511495032437 9.286328762476183 0 -1 -1
8 1 0.7443261690965081 4.280640109685182 9.676995647168717 -1 1 0
1470 2 2.649701489351867 3.4653572729725637 6.250425679087107 -1 1 1