FLiNa to FNa ratio: 1

100 atoms 
0  bonds
0  angles0  dihedrals
0  impropers

3 atom type
0  bond types
0  angle types
0  dihedral types
0  improper types

0.0 11.431265444370606 xlo xhi
0.0 11.431265444370606 ylo yhi
0.0 11.431265444370606 zlo zhi

Masses

1 18.998
2 6.941
2 22.99

Atoms

1 1 38.263 -248.988 106.364
2 1 -111.481 127.479 170.985
3 1 -25.69 110.208 -29.679
4 1 8.498 166.77 119.117
5 1 -115.826 243.061 -25.319
6 1 -12.5 290.315 80.204
7 1 -204.18 263.291 -86.171
8 1 -12.301 180.377 62.375
9 1 89.459 -43.024 9.008
10 1 130.471 60.991 -40.221
11 1 68.593 -56.23 55.991
12 1 161.373 340.703 40.965
13 1 -96.662 70.886 -156.206
14 1 -11.146 6.795 117.065
15 1 85.002 4.482 -49.195
16 1 203.327 75.275 89.293
17 1 5.947 220.477 81.578
18 1 193.534 -57.71 -11.885
19 1 -63.102 -156.962 -24.373
20 1 108.565 -17.718 4.998
21 1 22.694 33.709 86.886
22 1 309.618 -89.312 -142.949
23 1 172.573 163.001 301.603
24 1 -16.145 291.452 20.807
25 1 317.809 53.896 16.958
26 1 134.638 160.083 179.927
27 1 -46.745 -89.202 -1.342
28 1 138.185 -7.403 5.014
29 1 66.814 90.964 158.554
30 1 81.357 127.295 150.212
31 1 -30.717 7.975 181.871
32 1 -25.814 -47.161 -62.85 
33 1 78.567 5.453 -145.321
34 1 -85.461 -2.786 74.446
35 1 135.055 -35.412 288.474
36 1 173.783 -31.762 -172.841
37 1 107.373 -65.279 -8.266
38 1 200.709 -23.354 65.912
39 1 89.531 299.653 178.861
40 1 -105.397 -71.499 10.278
41 1 52.897 38.479 -58.832
42 1 231.757 -56.169 38.532
43 1 -24.587 -25.072 37.545
44 1 91.651 -80.924 79.706
45 1 134.288 221.025 -8.268
46 1 254.392 133.074 29.408
47 1 31.921 218.239 138.468
48 1 23.565 -110.046 -250.598
49 1 -1.977 124.838 74.1 
50 1 45.208 117.395 265.084
51 2 110.004 89.413 0.923
52 2 25.3 -50.507 -10.589
53 2 324.422 121.963 24.993
54 2 -188.331 260.556 -200.842
55 2 260.713 142.08 -122.875
56 2 -77.494 -130.208 116.733
57 2 27.418 17.048 -85.465
58 2 -43.855 96.586 -101.32 
59 2 -7.977 248.356 119.963
60 2 4.731 167.891 -191.11 
61 2 279.367 -91.537 139.603
62 2 -36.088 0.857 -129.167
63 2 -10.915 85.998 35.603
64 2 88.453 338.526 245.62 
65 2 -110.448 130.777 148.636
66 2 -73.92 -21.049 -49.016
67 2 -8.028 197.697 -189.883
68 2 -111.187 -52.366 284.261
69 2 -38.773 -66.005 -71.583
70 2 186.286 -47.641 -158.639
71 2 -67.082 185.435 126.262
72 2 -151.681 181.922 220.406
73 2 -29.662 30.483 196.887
74 2 -41.006 128.84 100.554
75 2 40.266 155.769 341.753
76 3 108.031 -126.268 202.033
77 3 -1.752 109.549 94.564
78 3 116.896 35.31 -90.71 
79 3 28.155 -217.445 -23.36 
80 3 40.531 -86.393 139.168
81 3 103.35 127.237 162.324
82 3 71.307 -71.581 210.43 
83 3 394.384 268.309 -212.508
84 3 -4.262 111.487 18.168
85 3 22.923 105.672 126.537
86 3 296.841 -11.351 93.601
87 3 -63.271 -168.714 48.227
88 3 1.305 191.451 376.277
89 3 24.092 211.292 219.707
90 3 -214.843 338.937 24.158
91 3 12.156 15.535 366.807
92 3 65.894 359.76 261.137
93 3 215.561 98.173 -45.915
94 3 -76.101 -80.677 -87.639
95 3 24.947 -25.265 180.994
96 3 241.802 38.435 -1.28 
97 3 85.294 324.011 148.587
98 3 203.984 -370.991 421.375
99 3 65.376 283.687 98.627
100 3 121.407 101.567 66.632