#FLiNa 100 atoms 2,1,1 ratios

100  atoms
0  bonds
0  angles
0  dihedrals
0  impropers

3  atom types
0  bond types
0  angle types
0  dihedral types
0  improper types

0.0 11.25187937 xlo xhi
0.0 11.25187937 ylo yhi
0.0 11.25187937 zlo zhi

Masses

1 18.998403163    # F
2 6.938           # Li
3 22.989769       # Na

Atoms # 

1 1 10.244 4.146 2.593
2 1 9.719 7.405 8.78 
3 1 8.732 2.861 10.011
4 1 8.939 0.551 10.214
5 1 9.416 5.606 0.519
6 1 4.898 0.478 6.66 
7 1 0.002 6.166 5.424
8 1 10.19 2.414 6.92 
9 1 2.66 8.046 4.655
10 1 9.709 4.649 8.069
11 1 9.883 0.073 4.182
12 1 0.136 2.74 5.099
13 1 1.066 0.019 3.891
14 1 5.776 1.875 2.91 
15 1 8.069 0.177 2.764
16 1 0.156 7.168 0.011
17 1 9.629 9.957 7.257
18 1 2.901 0.042 10.247
19 1 9.746 8.47 4.554
20 1 3.848 10.211 2.336
21 1 3.299 5.129 7.552
22 1 0.078 9.148 9.126
23 1 3.433 10.249 4.703
24 1 2.595 0.039 7.612
25 1 8.296 2.898 2.041
26 1 6.224 2.938 4.916
27 1 6.181 7.115 5.587
28 1 7.181 5.494 3.152
29 1 10.172 4.911 10.249
30 1 0.103 1.763 2.678
31 1 7.199 8.979 7.808
32 1 2.587 10.18 0.03 
33 1 1.855 3.097 7.078
34 1 9.518 6.497 2.811
35 1 0.581 7.033 2.803
36 1 0.137 9.131 6.859
37 1 7.318 8.747 3.151
38 1 2.284 10.144 7.259
39 1 1.243 8.795 1.326
40 1 10.187 9.573 10.031
41 1 4.702 0.426 0.086
42 1 0.076 4.024 3.284
43 1 6.581 0.264 4.426
44 1 1.149 9.738 3.573
45 1 5.551 4.783 10.197
46 1 0.742 5.118 8.825
47 1 10.142 6.177 5.109
48 1 0.006 1.191 6.898
49 1 4.59 8.016 2.475
50 1 0.005 4.327 6.753
51 2 4.131 3.58 3.375
52 2 7.598 5.828 9.932
53 2 6.522 3.707 0.252
54 2 5.55 9.433 4.662
55 2 2.915 7.464 0.08 
56 2 4.563 5.432 5.629
57 2 2.667 0.103 0.936
58 2 8.085 8.774 9.862
59 2 3.423 1.854 5.119
60 2 0.721 7.048 10.096
61 2 2.56 7.797 6.942
62 2 4.504 8.962 0.465
63 2 3.736 7.982 9.213
64 2 6.028 6.578 8.556
65 2 0.729 1.185 9.222
66 2 9.071 10.216 3.243
67 2 0.484 3.257 10.078
68 2 6.232 3.48 7.123
69 2 7.303 1.055 0.847
70 2 3.637 3.411 10.057
71 2 9.976 2.745 4.527
72 2 1.3 2.532 0.073
73 2 9.054 8.049 1.118
74 2 2.247 4.305 5.1 
75 2 6.001 7.096 0.549
76 3 9.352 0.456 0.008
77 3 2.77 5.908 9.789
78 3 10.202 0.548 8.291
79 3 8.066 9.87 5.571
80 3 8.19 3.843 5.678
81 3 4.325 2.789 0.294
82 3 8.164 7.205 6.853
83 3 4.767 5.021 0.584
84 3 5.032 9.633 6.869
85 3 7.612 9.813 0.734
86 3 5.524 9.59 9.399
87 3 3.248 6.046 2.407
88 3 7.436 0.189 8.571
89 3 10.037 1.324 2.058
90 3 8.238 1.562 6.01 
91 3 4.085 1.308 8.732
92 3 1.684 5.707 0.751
93 3 0.429 0.105 0.209
94 3 2.482 9.981 10.167
95 3 0.166 7.025 7.596
96 3 6.121 1.769 10.081
97 3 10.066 2.82 0.168
98 3 4.462 0.166 3.699
99 3 2.475 2.064 2.11 
100 3 10.173 10.2 1.108