LAMMPS (29 Sep 2021 - Update 2)
OMP_NUM_THREADS environment is not set. Defaulting to 1 thread. (src/comm.cpp:98)
  using 1 OpenMP thread(s) per MPI task
Reading data file ...
  orthogonal box = (0.0000000 0.0000000 0.0000000) to (22.862531 34.293796 45.725062)
  1 by 1 by 1 MPI processor grid
  reading atoms ...
  2400 atoms
  reading velocities ...
  2400 velocities
  read_data CPU = 0.013 seconds
NEQUIP is using device cuda
NequIP Coeff: type 1 is element F
NequIP Coeff: type 2 is element Li
NequIP Coeff: type 3 is element Na
Loading model from FLiNa_f_pyt10.2
Freezing TorchScript model...
WARNING: Using 'neigh_modify every 1 delay 0 check yes' setting during minimization (src/min.cpp:188)
Neighbor list info ...
  update every 1 steps, delay 0 steps, check yes
  max neighbors/atom: 2000, page size: 100000
  master list distance cutoff = 7
  ghost atom cutoff = 7
  binsize = 3.5, bins = 7 10 14
  1 neighbor lists, perpetual/occasional/extra = 1 0 0
  (1) pair nequip, perpetual
      attributes: full, newton off
      pair build: full/bin/atomonly
      stencil: full/bin/3d
      bin: standard
Setting up cg style minimization ...
  Unit style    : metal
  Current step  : 0
Per MPI rank memory allocation (min/avg/max) = 5.107 | 5.107 | 5.107 Mbytes
Step Temp E_pair E_mol TotEng Press 
       0    1494.7203   -10460.287            0   -9996.7817    13809.557 
       1    1494.7203   -10543.117            0   -10079.612    13809.557 
       2    1494.7203   -10616.988            0   -10153.483    13809.557 
       3    1494.7203   -10682.645            0   -10219.139    13809.557 
       4    1494.7203   -10726.524            0   -10263.019    13809.557 
       5    1494.7203   -10755.386            0    -10291.88    13809.557 
       6    1494.7203   -10777.937            0   -10314.431    13809.557 
       7    1494.7203   -10796.796            0    -10333.29    13809.557 
       8    1494.7203   -10811.183            0   -10347.677    13809.557 
       9    1494.7203    -10817.39            0   -10353.884    13809.557 
      10    1494.7203   -10826.973            0   -10363.467    13809.557 
      11    1494.7203   -10832.932            0   -10369.426    13809.557 
      12    1494.7203   -10838.861            0   -10375.356    13809.557 
      13    1494.7203    -10845.64            0   -10382.134    13809.557 
      14    1494.7203   -10849.581            0   -10386.076    13809.557 
      15    1494.7203   -10858.112            0   -10394.607    13809.557 
      16    1494.7203   -10861.319            0   -10397.814    13809.557 
      17    1494.7203   -10867.717            0   -10404.211    13809.557 
      18    1494.7203   -10870.535            0    -10407.03    13809.557 
      19    1494.7203    -10873.31            0   -10409.804    13809.557 
      20    1494.7203   -10876.935            0   -10413.429    13809.557 
      21    1494.7203   -10878.991            0   -10415.486    13809.557 
      22    1494.7203   -10883.293            0   -10419.788    13809.557 
      23    1494.7203   -10885.018            0   -10421.512    13809.557 
      24    1494.7203   -10889.461            0   -10425.956    13809.557 
      25    1494.7203   -10891.084            0   -10427.579    13809.557 
      26    1494.7203   -10894.698            0   -10431.193    13809.557 
      27    1494.7203   -10896.406            0   -10432.901    13809.557 
      28    1494.7203   -10900.026            0   -10436.521    13809.557 
      29    1494.7203   -10901.475            0   -10437.969    13809.557 
      30    1494.7203   -10904.745            0    -10441.24    13809.557 
      31    1494.7203   -10906.199            0   -10442.694    13809.557 
      32    1494.7203   -10909.188            0   -10445.683    13809.557 
      33    1494.7203   -10910.473            0   -10446.967    13809.557 
      34    1494.7203   -10913.073            0   -10449.568    13809.557 
      35    1494.7203    -10914.51            0   -10451.004    13809.557 
      36    1494.7203   -10917.027            0   -10453.522    13809.557 
      37    1494.7203   -10918.189            0   -10454.684    13809.557 
      38    1494.7203   -10920.508            0   -10457.002    13809.557 
      39    1494.7203   -10921.883            0   -10458.377    13809.557 
      40    1494.7203   -10924.087            0   -10460.582    13809.557 
      41    1494.7203   -10925.198            0   -10461.693    13809.557 
      42    1494.7203   -10926.972            0   -10463.466    13809.557 
      43    1494.7203   -10928.218            0   -10464.712    13809.557 
      44    1494.7203   -10930.347            0   -10466.841    13809.557 
      45    1494.7203   -10931.272            0   -10467.767    13809.557 
      46    1494.7203   -10933.021            0   -10469.515    13809.557 
      47    1494.7203   -10934.341            0   -10470.835    13809.557 
      48    1494.7203   -10935.886            0    -10472.38    13809.557 
      49    1494.7203   -10937.359            0   -10473.854    13809.557 
      50    1494.7203   -10938.782            0   -10475.277    13809.557 
      51    1494.7203    -10940.31            0   -10476.804    13809.557 
      52    1494.7203    -10941.97            0   -10478.464    13809.557 
      53    1494.7203   -10943.812            0   -10480.307    13809.557 
      54    1494.7203   -10945.354            0   -10481.849    13809.557 
      55    1494.7203   -10946.512            0   -10483.006    13809.557 
      56    1494.7203   -10947.643            0   -10484.137    13809.557 
      57    1494.7203    -10948.85            0   -10485.344    13809.557 
      58    1494.7203   -10950.176            0    -10486.67    13809.557 
      59    1494.7203   -10951.674            0   -10488.168    13809.557 
      60    1494.7203   -10952.932            0   -10489.426    13809.557 
      61    1494.7203   -10953.932            0   -10490.426    13809.557 
      62    1494.7203   -10954.686            0    -10491.18    13809.557 
      63    1494.7203   -10955.624            0   -10492.119    13809.557 
      64    1494.7203   -10956.333            0   -10492.828    13809.557 
      65    1494.7203   -10957.388            0   -10493.882    13809.557 
      66    1494.7203    -10958.55            0   -10495.044    13809.557 
      67    1494.7203   -10958.871            0   -10495.366    13809.557 
      68    1494.7203   -10959.633            0   -10496.127    13809.557 
      69    1494.7203   -10960.496            0   -10496.991    13809.557 
      70    1494.7203    -10961.31            0   -10497.804    13809.557 
      71    1494.7203   -10961.784            0   -10498.279    13809.557 
      72    1494.7203   -10962.354            0   -10498.848    13809.557 
      73    1494.7203   -10962.807            0   -10499.301    13809.557 
      74    1494.7203   -10963.495            0    -10499.99    13809.557 
      75    1494.7203   -10964.438            0   -10500.933    13809.557 
      76    1494.7203   -10965.124            0   -10501.619    13809.557 
      77    1494.7203   -10965.716            0    -10502.21    13809.557 
      78    1494.7203   -10966.256            0    -10502.75    13809.557 
      79    1494.7203   -10966.673            0   -10503.167    13809.557 
      80    1494.7203   -10967.109            0   -10503.604    13809.557 
      81    1494.7203   -10967.378            0   -10503.873    13809.557 
      82    1494.7203   -10967.664            0   -10504.159    13809.557 
      83    1494.7203   -10968.136            0    -10504.63    13809.557 
      84    1494.7203   -10968.516            0    -10505.01    13809.557 
      85    1494.7203   -10968.942            0   -10505.437    13809.557 
      86    1494.7203   -10969.505            0   -10505.999    13809.557 
      87    1494.7203   -10969.905            0     -10506.4    13809.557 
      88    1494.7203   -10970.449            0   -10506.944    13809.557 
      89    1494.7203   -10971.206            0   -10507.701    13809.557 
      90    1494.7203   -10971.853            0   -10508.347    13809.557 
      91    1494.7203   -10972.374            0   -10508.869    13809.557 
      92    1494.7203   -10972.902            0   -10509.397    13809.557 
      93    1494.7203   -10973.364            0   -10509.859    13809.557 
      94    1494.7203   -10973.856            0   -10510.351    13809.557 
      95    1494.7203   -10974.277            0   -10510.772    13809.557 
      96    1494.7203   -10974.637            0   -10511.131    13809.557 
      97    1494.7203   -10974.938            0   -10511.432    13809.557 
      98    1494.7203   -10975.165            0    -10511.66    13809.557 
      99    1494.7203   -10975.605            0     -10512.1    13809.557 
     100    1494.7203   -10975.946            0   -10512.441    13809.557 
     101    1494.7203   -10976.268            0   -10512.762    13809.557 
     102    1494.7203   -10976.587            0   -10513.082    13809.557 
     103    1494.7203   -10976.877            0   -10513.372    13809.557 
     104    1494.7203   -10977.346            0    -10513.84    13809.557 
     105    1494.7203   -10977.861            0   -10514.356    13809.557 
     106    1494.7203   -10978.249            0   -10514.744    13809.557 
     107    1494.7203   -10978.577            0   -10515.072    13809.557 
     108    1494.7203   -10978.938            0   -10515.433    13809.557 
     109    1494.7203   -10979.171            0   -10515.665    13809.557 
     110    1494.7203   -10979.386            0    -10515.88    13809.557 
     111    1494.7203   -10979.585            0    -10516.08    13809.557 
     112    1494.7203   -10979.805            0   -10516.299    13809.557 
     113    1494.7203   -10980.226            0    -10516.72    13809.557 
     114    1494.7203   -10980.514            0   -10517.008    13809.557 
     115    1494.7203    -10980.85            0   -10517.344    13809.557 
     116    1494.7203   -10981.301            0   -10517.795    13809.557 
     117    1494.7203    -10981.75            0   -10518.245    13809.557 
     118    1494.7203   -10982.208            0   -10518.703    13809.557 
     119    1494.7203   -10982.632            0   -10519.126    13809.557 
     120    1494.7203   -10983.011            0   -10519.505    13809.557 
     121    1494.7203   -10983.365            0    -10519.86    13809.557 
     122    1494.7203   -10983.792            0   -10520.287    13809.557 
     123    1494.7203   -10984.087            0   -10520.582    13809.557 
     124    1494.7203   -10984.273            0   -10520.768    13809.557 
     125    1494.7203   -10984.596            0    -10521.09    13809.557 
     126    1494.7203   -10984.867            0   -10521.362    13809.557 
     127    1494.7203   -10985.051            0   -10521.545    13809.557 
     128    1494.7203   -10985.258            0   -10521.752    13809.557 
     129    1494.7203   -10985.508            0   -10522.002    13809.557 
     130    1494.7203   -10985.754            0   -10522.248    13809.557 
     131    1494.7203   -10986.032            0   -10522.527    13809.557 
     132    1494.7203   -10986.276            0   -10522.771    13809.557 
     133    1494.7203   -10986.495            0    -10522.99    13809.557 
     134    1494.7203   -10986.659            0   -10523.154    13809.557 
     135    1494.7203   -10986.818            0   -10523.313    13809.557 
     136    1494.7203   -10986.978            0   -10523.472    13809.557 
     137    1494.7203   -10987.138            0   -10523.632    13809.557 
     138    1494.7203   -10987.334            0   -10523.829    13809.557 
     139    1494.7203    -10987.53            0   -10524.025    13809.557 
     140    1494.7203   -10987.695            0    -10524.19    13809.557 
     141    1494.7203   -10987.909            0   -10524.404    13809.557 
     142    1494.7203   -10988.113            0   -10524.608    13809.557 
     143    1494.7203   -10988.338            0   -10524.832    13809.557 
     144    1494.7203   -10988.504            0   -10524.998    13809.557 
     145    1494.7203   -10988.687            0   -10525.181    13809.557 
     146    1494.7203   -10988.819            0   -10525.314    13809.557 
     147    1494.7203   -10989.018            0   -10525.512    13809.557 
     148    1494.7203   -10989.248            0   -10525.743    13809.557 
     149    1494.7203   -10989.464            0   -10525.958    13809.557 
     150    1494.7203   -10989.639            0   -10526.133    13809.557 
     151    1494.7203   -10989.807            0   -10526.301    13809.557 
     152    1494.7203   -10989.938            0   -10526.433    13809.557 
     153    1494.7203   -10990.194            0   -10526.689    13809.557 
     154    1494.7203   -10990.417            0   -10526.912    13809.557 
     155    1494.7203   -10990.583            0   -10527.078    13809.557 
     156    1494.7203   -10990.784            0   -10527.279    13809.557 
     157    1494.7203   -10990.943            0   -10527.438    13809.557 
     158    1494.7203   -10991.104            0   -10527.598    13809.557 
     159    1494.7203    -10991.29            0   -10527.785    13809.557 
     160    1494.7203   -10991.474            0   -10527.968    13809.557 
     161    1494.7203   -10991.604            0   -10528.098    13809.557 
     162    1494.7203   -10991.693            0   -10528.188    13809.557 
     163    1494.7203   -10991.807            0   -10528.301    13809.557 
     164    1494.7203    -10991.92            0   -10528.415    13809.557 
     165    1494.7203   -10992.021            0   -10528.516    13809.557 
     166    1494.7203   -10992.147            0   -10528.642    13809.557 
     167    1494.7203   -10992.299            0   -10528.793    13809.557 
     168    1494.7203   -10992.457            0   -10528.952    13809.557 
     169    1494.7203   -10992.631            0   -10529.125    13809.557 
     170    1494.7203   -10992.777            0   -10529.272    13809.557 
     171    1494.7203   -10992.888            0   -10529.382    13809.557 
     172    1494.7203   -10993.004            0   -10529.498    13809.557 
     173    1494.7203   -10993.127            0   -10529.622    13809.557 
     174    1494.7203    -10993.24            0   -10529.735    13809.557 
     175    1494.7203   -10993.366            0   -10529.861    13809.557 
     176    1494.7203   -10993.485            0    -10529.98    13809.557 
     177    1494.7203    -10993.56            0   -10530.054    13809.557 
     178    1494.7203   -10993.645            0   -10530.139    13809.557 
     179    1494.7203   -10993.772            0   -10530.267    13809.557 
     180    1494.7203   -10993.869            0   -10530.364    13809.557 
     181    1494.7203   -10993.953            0   -10530.448    13809.557 
     182    1494.7203   -10994.072            0   -10530.567    13809.557 
     183    1494.7203     -10994.2            0   -10530.695    13809.557 
     184    1494.7203   -10994.312            0   -10530.806    13809.557 
     185    1494.7203   -10994.363            0   -10530.858    13809.557 
     186    1494.7203   -10994.467            0   -10530.961    13809.557 
     187    1494.7203   -10994.589            0   -10531.083    13809.557 
     188    1494.7203   -10994.686            0    -10531.18    13809.557 
     189    1494.7203   -10994.766            0    -10531.26    13809.557 
     190    1494.7203   -10994.893            0   -10531.387    13809.557 
     191    1494.7203   -10995.004            0   -10531.498    13809.557 
     192    1494.7203    -10995.16            0   -10531.655    13809.557 
     193    1494.7203   -10995.282            0   -10531.777    13809.557 
     194    1494.7203   -10995.395            0   -10531.889    13809.557 
     195    1494.7203   -10995.548            0   -10532.042    13809.557 
     196    1494.7203   -10995.668            0   -10532.163    13809.557 
     197    1494.7203    -10995.81            0   -10532.304    13809.557 
     198    1494.7203    -10995.95            0   -10532.445    13809.557 
     199    1494.7203    -10996.07            0   -10532.565    13809.557 
     200    1494.7203   -10996.158            0   -10532.653    13809.557 
     201    1494.7203   -10996.232            0   -10532.727    13809.557 
     202    1494.7203   -10996.304            0   -10532.798    13809.557 
     203    1494.7203   -10996.379            0   -10532.873    13809.557 
     204    1494.7203    -10996.46            0   -10532.955    13809.557 
     205    1494.7203   -10996.515            0   -10533.009    13809.557 
     206    1494.7203   -10996.585            0    -10533.08    13809.557 
     207    1494.7203   -10996.671            0   -10533.165    13809.557 
     208    1494.7203   -10996.759            0   -10533.253    13809.557 
     209    1494.7203   -10996.849            0   -10533.343    13809.557 
     210    1494.7203   -10996.951            0   -10533.446    13809.557 
     211    1494.7203       -10997            0   -10533.495    13809.557 
     212    1494.7203   -10997.102            0   -10533.596    13809.557 
     213    1494.7203   -10997.161            0   -10533.656    13809.557 
     214    1494.7203   -10997.223            0   -10533.717    13809.557 
     215    1494.7203   -10997.286            0   -10533.781    13809.557 
     216    1494.7203   -10997.351            0   -10533.845    13809.557 
     217    1494.7203    -10997.42            0   -10533.915    13809.557 
     218    1494.7203   -10997.477            0   -10533.971    13809.557 
     219    1494.7203   -10997.562            0   -10534.057    13809.557 
     220    1494.7203   -10997.611            0   -10534.106    13809.557 
     221    1494.7203   -10997.702            0   -10534.197    13809.557 
     222    1494.7203   -10997.794            0   -10534.289    13809.557 
     223    1494.7203   -10997.904            0   -10534.399    13809.557 
     224    1494.7203   -10998.022            0   -10534.517    13809.557 
     225    1494.7203   -10998.114            0   -10534.609    13809.557 
     226    1494.7203   -10998.183            0   -10534.677    13809.557 
     227    1494.7203   -10998.329            0   -10534.824    13809.557 
     228    1494.7203   -10998.414            0   -10534.909    13809.557 
     229    1494.7203   -10998.497            0   -10534.992    13809.557 
     230    1494.7203    -10998.59            0   -10535.084    13809.557 
     231    1494.7203   -10998.668            0   -10535.163    13809.557 
     232    1494.7203   -10998.768            0   -10535.262    13809.557 
     233    1494.7203   -10998.867            0   -10535.362    13809.557 
     234    1494.7203   -10998.933            0   -10535.427    13809.557 
     235    1494.7203   -10998.998            0   -10535.493    13809.557 
     236    1494.7203   -10999.082            0   -10535.577    13809.557 
     237    1494.7203   -10999.135            0   -10535.629    13809.557 
     238    1494.7203   -10999.192            0   -10535.687    13809.557 
     239    1494.7203   -10999.236            0   -10535.731    13809.557 
     240    1494.7203   -10999.281            0   -10535.776    13809.557 
     241    1494.7203   -10999.325            0    -10535.82    13809.557 
     242    1494.7203   -10999.367            0   -10535.862    13809.557 
     243    1494.7203   -10999.429            0   -10535.923    13809.557 
     244    1494.7203   -10999.507            0   -10536.001    13809.557 
     245    1494.7203   -10999.575            0    -10536.07    13809.557 
     246    1494.7203   -10999.698            0   -10536.193    13809.557 
     247    1494.7203   -10999.805            0   -10536.299    13809.557 
     248    1494.7203   -10999.922            0   -10536.416    13809.557 
     249    1494.7203    -11000.05            0   -10536.544    13809.557 
     250    1494.7203   -11000.145            0   -10536.639    13809.557 
     251    1494.7203   -11000.256            0    -10536.75    13809.557 
     252    1494.7203   -11000.349            0   -10536.843    13809.557 
     253    1494.7203   -11000.413            0   -10536.908    13809.557 
     254    1494.7203   -11000.491            0   -10536.986    13809.557 
     255    1494.7203   -11000.537            0   -10537.032    13809.557 
     256    1494.7203   -11000.606            0   -10537.101    13809.557 
     257    1494.7203   -11000.671            0   -10537.165    13809.557 
     258    1494.7203    -11000.72            0   -10537.214    13809.557 
     259    1494.7203    -11000.78            0   -10537.275    13809.557 
     260    1494.7203   -11000.854            0   -10537.348    13809.557 
     261    1494.7203   -11000.927            0   -10537.421    13809.557 
     262    1494.7203   -11000.985            0    -10537.48    13809.557 
     263    1494.7203   -11001.062            0   -10537.557    13809.557 
     264    1494.7203    -11001.13            0   -10537.624    13809.557 
     265    1494.7203   -11001.182            0   -10537.676    13809.557 
     266    1494.7203   -11001.223            0   -10537.717    13809.557 
     267    1494.7203   -11001.282            0   -10537.777    13809.557 
     268    1494.7203   -11001.323            0   -10537.818    13809.557 
     269    1494.7203   -11001.388            0   -10537.882    13809.557 
     270    1494.7203   -11001.436            0    -10537.93    13809.557 
     271    1494.7203   -11001.468            0   -10537.962    13809.557 
     272    1494.7203   -11001.509            0   -10538.003    13809.557 
     273    1494.7203   -11001.552            0   -10538.046    13809.557 
     274    1494.7203   -11001.591            0   -10538.085    13809.557 
     275    1494.7203   -11001.632            0   -10538.126    13809.557 
     276    1494.7203   -11001.669            0   -10538.164    13809.557 
     277    1494.7203   -11001.699            0   -10538.194    13809.557 
     278    1494.7203   -11001.726            0    -10538.22    13809.557 
     279    1494.7203   -11001.757            0   -10538.251    13809.557 
     280    1494.7203   -11001.769            0   -10538.263    13809.557 
     281    1494.7203   -11001.798            0   -10538.292    13809.557 
     282    1494.7203   -11001.846            0    -10538.34    13809.557 
     283    1494.7203   -11001.856            0   -10538.351    13809.557 
     284    1494.7203   -11001.874            0   -10538.369    13809.557 
     285    1494.7203   -11001.891            0   -10538.385    13809.557 
     286    1494.7203    -11001.91            0   -10538.405    13809.557 
     287    1494.7203   -11001.939            0   -10538.434    13809.557 
     288    1494.7203   -11001.981            0   -10538.476    13809.557 
     289    1494.7203   -11002.008            0   -10538.502    13809.557 
     290    1494.7203   -11002.039            0   -10538.534    13809.557 
     291    1494.7203   -11002.103            0   -10538.597    13809.557 
     292    1494.7203   -11002.131            0   -10538.625    13809.557 
     293    1494.7203   -11002.166            0   -10538.661    13809.557 
     294    1494.7203   -11002.192            0   -10538.687    13809.557 
     295    1494.7203    -11002.22            0   -10538.714    13809.557 
     296    1494.7203   -11002.242            0   -10538.737    13809.557 
     297    1494.7203   -11002.271            0   -10538.766    13809.557 
     298    1494.7203   -11002.304            0   -10538.798    13809.557 
     299    1494.7203   -11002.329            0   -10538.824    13809.557 
     300    1494.7203   -11002.359            0   -10538.854    13809.557 
     301    1494.7203   -11002.377            0   -10538.872    13809.557 
     302    1494.7203   -11002.406            0   -10538.901    13809.557 
     303    1494.7203    -11002.42            0   -10538.915    13809.557 
     304    1494.7203    -11002.47            0   -10538.964    13809.557 
     305    1494.7203   -11002.495            0    -10538.99    13809.557 
     306    1494.7203   -11002.552            0   -10539.046    13809.557 
     307    1494.7203   -11002.593            0   -10539.087    13809.557 
     308    1494.7203   -11002.672            0   -10539.166    13809.557 
     309    1494.7203   -11002.741            0   -10539.236    13809.557 
     310    1494.7203   -11002.822            0   -10539.317    13809.557 
     311    1494.7203   -11002.869            0   -10539.364    13809.557 
     312    1494.7203   -11002.956            0   -10539.451    13809.557 
     313    1494.7203   -11003.014            0   -10539.508    13809.557 
     314    1494.7203    -11003.08            0   -10539.575    13809.557 
     315    1494.7203   -11003.197            0   -10539.692    13809.557 
     316    1494.7203    -11003.28            0   -10539.775    13809.557 
     317    1494.7203   -11003.364            0   -10539.859    13809.557 
     318    1494.7203    -11003.44            0   -10539.935    13809.557 
     319    1494.7203   -11003.546            0    -10540.04    13809.557 
     320    1494.7203   -11003.592            0   -10540.086    13809.557 
     321    1494.7203   -11003.661            0   -10540.156    13809.557 
     322    1494.7203   -11003.729            0   -10540.224    13809.557 
     323    1494.7203   -11003.845            0   -10540.339    13809.557 
     324    1494.7203   -11003.979            0   -10540.474    13809.557 
     325    1494.7203    -11004.05            0   -10540.544    13809.557 
     326    1494.7203     -11004.1            0   -10540.594    13809.557 
     327    1494.7203   -11004.152            0   -10540.647    13809.557 
     328    1494.7203   -11004.214            0   -10540.708    13809.557 
     329    1494.7203   -11004.282            0   -10540.777    13809.557 
     330    1494.7203   -11004.372            0   -10540.867    13809.557 
     331    1494.7203   -11004.415            0    -10540.91    13809.557 
     332    1494.7203   -11004.507            0   -10541.001    13809.557 
     333    1494.7203   -11004.547            0   -10541.041    13809.557 
     334    1494.7203   -11004.618            0   -10541.113    13809.557 
     335    1494.7203   -11004.654            0   -10541.149    13809.557 
     336    1494.7203   -11004.708            0   -10541.203    13809.557 
     337    1494.7203   -11004.779            0   -10541.274    13809.557 
     338    1494.7203   -11004.829            0   -10541.324    13809.557 
     339    1494.7203   -11004.899            0   -10541.394    13809.557 
     340    1494.7203    -11004.96            0   -10541.455    13809.557 
     341    1494.7203   -11005.004            0   -10541.498    13809.557 
     342    1494.7203   -11005.062            0   -10541.556    13809.557 
     343    1494.7203   -11005.103            0   -10541.597    13809.557 
     344    1494.7203   -11005.128            0   -10541.623    13809.557 
     345    1494.7203   -11005.167            0   -10541.662    13809.557 
     346    1494.7203   -11005.214            0   -10541.708    13809.557 
     347    1494.7203   -11005.246            0   -10541.741    13809.557 
     348    1494.7203    -11005.27            0   -10541.764    13809.557 
     349    1494.7203   -11005.303            0   -10541.797    13809.557 
     350    1494.7203   -11005.324            0   -10541.819    13809.557 
     351    1494.7203   -11005.346            0    -10541.84    13809.557 
     352    1494.7203   -11005.378            0   -10541.873    13809.557 
     353    1494.7203   -11005.399            0   -10541.894    13809.557 
     354    1494.7203   -11005.437            0   -10541.931    13809.557 
     355    1494.7203   -11005.472            0   -10541.966    13809.557 
     356    1494.7203   -11005.485            0    -10541.98    13809.557 
     357    1494.7203   -11005.502            0   -10541.997    13809.557 
     358    1494.7203   -11005.522            0   -10542.017    13809.557 
     359    1494.7203   -11005.536            0   -10542.031    13809.557 
     360    1494.7203    -11005.55            0   -10542.044    13809.557 
     361    1494.7203   -11005.563            0   -10542.058    13809.557 
     362    1494.7203   -11005.577            0   -10542.072    13809.557 
     363    1494.7203   -11005.588            0   -10542.082    13809.557 
     364    1494.7203   -11005.625            0    -10542.12    13809.557 
     365    1494.7203   -11005.635            0   -10542.129    13809.557 
     366    1494.7203   -11005.679            0   -10542.173    13809.557 
     367    1494.7203   -11005.703            0   -10542.198    13809.557 
     368    1494.7203   -11005.744            0   -10542.239    13809.557 
     369    1494.7203   -11005.792            0   -10542.287    13809.557 
     370    1494.7203   -11005.809            0   -10542.303    13809.557 
     371    1494.7203   -11005.862            0   -10542.357    13809.557 
     372    1494.7203   -11005.887            0   -10542.381    13809.557 
     373    1494.7203   -11005.921            0   -10542.415    13809.557 
     374    1494.7203   -11005.945            0    -10542.44    13809.557 
     375    1494.7203   -11005.976            0    -10542.47    13809.557 
     376    1494.7203   -11006.005            0   -10542.499    13809.557 
     377    1494.7203    -11006.01            0   -10542.504    13809.557 
     378    1494.7203    -11006.04            0   -10542.535    13809.557 
     379    1494.7203   -11006.053            0   -10542.547    13809.557 
     380    1494.7203   -11006.066            0   -10542.561    13809.557 
     381    1494.7203   -11006.096            0    -10542.59    13809.557 
     382    1494.7203    -11006.09            0   -10542.584    13809.557 
Loop time of 118.492 on 1 procs for 382 steps with 2400 atoms

98.0% CPU use with 1 MPI tasks x 1 OpenMP threads

Minimization stats:
  Stopping criterion = energy tolerance
  Energy initial, next-to-last, final = 
      -10460.287109375   -11006.095703125    -11006.08984375
  Force two-norm initial, final = 67.297180 0.32881829
  Force max component initial, final = 4.3923216 0.11165273
  Final line search alpha, max atom move = 0.0021346185 0.00023833599
  Iterations, force evaluations = 382 627

MPI task timing breakdown:
Section |  min time  |  avg time  |  max time  |%varavg| %total
---------------------------------------------------------------
Pair    | 118.13     | 118.13     | 118.13     |   0.0 | 99.69
Neigh   | 0.26638    | 0.26638    | 0.26638    |   0.0 |  0.22
Comm    | 0.033857   | 0.033857   | 0.033857   |   0.0 |  0.03
Output  | 0.01143    | 0.01143    | 0.01143    |   0.0 |  0.01
Modify  | 0          | 0          | 0          |   0.0 |  0.00
Other   |            | 0.05527    |            |       |  0.05

Nlocal:        2400.00 ave        2400 max        2400 min
Histogram: 1 0 0 0 0 0 0 0 0 0
Nghost:        4693.00 ave        4693 max        4693 min
Histogram: 1 0 0 0 0 0 0 0 0 0
Neighs:         0.00000 ave           0 max           0 min
Histogram: 1 0 0 0 0 0 0 0 0 0
FullNghs:      229114.0 ave      229114 max      229114 min
Histogram: 1 0 0 0 0 0 0 0 0 0

Total # of neighbors = 229114
Ave neighs/atom = 95.464167
Neighbor list builds = 20
Dangerous builds = 0
Setting up Verlet run ...
  Unit style    : metal
  Current step  : 0
  Time step     : 0.001
Per MPI rank memory allocation (min/avg/max) = 3.983 | 3.983 | 3.983 Mbytes
Step Temp E_pair E_mol TotEng Press 
       0         1500   -11006.094            0   -10540.951    13858.336 
     100    758.51311   -10742.168            0   -10506.957    7007.8195 
     200    863.45781   -10714.675            0   -10446.921     7977.392 
     300    966.08393   -10674.341            0   -10374.763    8925.5435 
     400    1077.1845   -10628.398            0   -10294.369    9951.9892 
     500    1211.4865   -10585.486            0    -10209.81    11192.791 
     600    1323.7066   -10536.234            0   -10125.759     12229.58 
     700    1456.6683   -10500.553            0   -10048.847    13457.999 
     800    1545.5973   -10470.747            0   -9991.4649    14279.604 
     900    1557.4487   -10450.101            0   -9967.1434    14389.097 
    1000    1519.9748   -10447.421            0   -9976.0842    14042.881 
    1100    1491.4089   -10460.284            0   -9997.8056    13778.964 
    1200    1440.3349   -10460.021            0    -10013.38    13307.096 
    1300    1475.2593   -10466.319            0   -10008.849    13629.759 
    1400    1514.1278   -10461.622            0   -9992.0985    13988.861 
    1500    1525.5976   -10450.681            0   -9977.6003    14094.829 
    1600    1522.3602   -10446.268            0   -9974.1911    14064.919 
    1700    1517.1079   -10456.517            0   -9986.0689    14016.394 
    1800    1458.4971   -10457.109            0   -10004.837    13474.895 
    1900    1486.8203   -10474.025            0    -10012.97     13736.57 
    2000    1495.8793    -10467.23            0   -10003.366    13820.265 
    2100    1500.9595   -10451.625            0   -9986.1848    13867.201 
    2200    1553.3895   -10456.583            0   -9974.8845    14351.595 
    2300    1511.2244   -10457.409            0   -9988.7859    13962.037 
    2400    1467.2674   -10462.505            0   -10007.512    13555.922 
    2500    1461.2122   -10470.379            0   -10017.264     13499.98 
    2600     1487.892   -10471.526            0   -10010.138    13746.471 
    2700    1492.2503   -10452.993            0   -9990.2537    13786.737 
    2800    1547.2306   -10455.095            0   -9975.3061    14294.694 
    2900    1497.4234   -10449.755            0   -9985.4112    13834.531 
    3000    1484.1466   -10464.591            0   -10004.364    13711.868 
    3100    1456.4396   -10467.361            0   -10015.727    13455.886 
    3200    1493.8348   -10466.229            0   -10002.998    13801.376 
    3300    1509.0887   -10454.834            0    -9986.873    13942.305 
    3400    1498.1515   -10445.224            0   -9980.6542    13841.257 
    3500    1555.5077   -10468.654            0    -9986.299    14371.165 
    3600     1485.866   -10467.084            0   -10006.324    13727.753 
    3700    1488.3924   -10477.254            0   -10015.711    13751.095 
    3800    1483.0357   -10474.507            0   -10014.625    13701.604 
    3900     1520.745   -10473.345            0   -10001.769    14049.997 
    4000    1515.9102    -10458.03            0    -9987.954    14005.329 
    4100    1527.0044   -10455.724            0   -9982.2071    14107.826 
    4200    1498.8725   -10459.755            0   -9994.9619    13847.919 
    4300    1479.4991   -10466.558            0   -10007.772     13668.93 
    4400    1477.3113   -10467.469            0   -10009.362    13648.717 
    4500    1510.8364   -10464.056            0   -9995.5527    13958.452 
    4600    1503.5204   -10447.543            0   -9981.3087     13890.86 
    4700    1537.0363   -10458.434            0   -9981.8062     14200.51 
    4800    1497.7073    -10462.17            0   -9997.7382    13837.154 
    4900    1494.6282   -10470.976            0   -10007.499    13808.706 
    5000    1464.2596   -10461.635            0   -10007.575    13528.134 
    5100    1513.0002   -10466.007            0   -9996.8329    13978.443 
    5200    1498.7174   -10461.003            0    -9996.258    13846.486 
    5300    1480.3426   -10463.938            0   -10004.892    13676.723 
    5400    1473.4746   -10460.362            0   -10003.445     13613.27 
    5500    1511.7181   -10456.455            0   -9987.6787    13966.598 
    5600    1496.1589   -10445.093            0   -9981.1412    13822.848 
    5700    1516.8087   -10457.746            0   -9987.3912     14013.63 
    5800    1484.6979   -10460.623            0   -10000.226    13716.962 
    5900     1476.238   -10461.071            0   -10003.297    13638.801 
    6000    1485.6732    -10462.17            0    -10001.47    13725.972 
    6100    1491.3964   -10467.931            0   -10005.456    13778.848 
    6200    1478.3191   -10467.309            0   -10008.889    13658.028 
    6300    1467.0518   -10465.132            0   -10010.206    13553.931 
    6400    1497.9099   -10462.475            0   -9997.9801    13839.025 
    6500    1530.5389   -10460.092            0   -9985.4792    14140.481 
    6600    1520.4643   -10461.208            0   -9989.7195    14047.403 
    6700    1485.7652   -10464.961            0   -10004.232    13726.822 
    6800    1466.7638   -10460.023            0   -10005.187     13551.27 
    6900     1503.861   -10464.997            0   -9998.6572    13894.007 
    7000    1489.0376   -10453.537            0   -9991.7939    13757.055 
    7100    1536.5646   -10462.989            0   -9986.5081    14196.152 
    7200    1493.5637   -10462.966            0   -9999.8191    13798.871 
    7300    1503.3471   -10478.754            0   -10012.573    13889.259 
    7400    1471.4743   -10466.568            0   -10010.271     13594.79 
    7500    1543.6537   -10475.111            0   -9996.4319    14261.647 
    7600    1519.0464   -10461.415            0   -9990.3662    14034.303 
    7700    1521.9925   -10461.793            0   -9989.8306    14061.522 
    7800    1531.2635   -10468.302            0   -9993.4645    14147.175 
    7900    1500.4981    -10463.82            0   -9998.5232    13862.938 
    8000    1478.6042   -10463.563            0   -10005.056    13660.662 
    8100     1489.512   -10466.573            0   -10004.683    13761.438 
    8200    1522.8879   -10468.066            0   -9995.8264    14069.794 
    8300    1499.9866    -10456.67            0   -9991.5314    13858.212 
    8400    1524.5109   -10465.365            0   -9992.6219    14084.789 
    8500    1459.7708   -10454.192            0   -10001.525    13486.663 
    8600    1512.5362   -10471.912            0   -10002.882    13974.156 
    8700    1498.5364   -10457.918            0   -9993.2292    13844.813 
    8800    1506.6657   -10449.065            0   -9981.8558    13919.919 
    8900    1510.1183   -10454.518            0   -9986.2373    13951.817 
    9000    1491.6733   -10463.722            0   -10001.161    13781.406 
    9100    1487.2082   -10481.295            0   -10020.119    13740.153 
    9200    1455.7281   -10467.383            0   -10015.969    13449.312 
    9300    1495.8585   -10469.054            0   -10005.195    13820.073 
    9400    1506.3304   -10465.382            0   -9998.2762    13916.821 
    9500     1500.164   -10452.959            0   -9987.7655    13859.851 
    9600    1556.2415   -10451.621            0   -9969.0382    14377.945 
    9700    1540.0624   -10451.148            0   -9973.5826    14228.468 
    9800    1542.3381   -10460.995            0   -9982.7236    14249.493 
    9900    1494.3069   -10457.398            0   -9994.0212    13805.738 
   10000    1484.8875   -10464.192            0   -10003.736    13718.712 
   10100    1488.6898   -10465.723            0   -10004.087    13753.842 
   10200    1530.3537   -10466.826            0    -9992.271     14138.77 
   10300    1550.7153   -10461.093            0   -9980.2236    14326.889 
   10400    1498.3248   -10456.046            0   -9991.4228    13842.858 
   10500    1489.8967    -10466.66            0   -10004.651    13764.992 
   10600    1522.6883   -10475.445            0   -10003.267    14067.951 
   10700    1480.2471   -10464.106            0   -10005.089    13675.841 
   10800      1505.64   -10465.096            0   -9998.2041    13910.443 
   10900    1532.2308   -10459.006            0   -9983.8686    14156.113 
   11000    1515.4369   -10452.515            0   -9982.5851    14000.955 
   11100    1495.9052   -10460.729            0   -9996.8566    13820.504 
   11200    1486.4827   -10469.593            0   -10008.642    13733.451 
   11300    1468.4609   -10462.987            0   -10007.625     13566.95 
   11400    1489.8596   -10464.088            0    -10002.09     13764.65 
   11500    1509.3875   -10464.945            0   -9996.8917    13945.066 
   11600    1488.8853   -10457.377            0   -9995.6809    13755.648 
   11700    1459.1323   -10462.208            0   -10009.738    13480.764 
   11800      1479.28   -10475.921            0   -10017.203    13666.906 
   11900    1490.9197   -10467.349            0   -10005.022    13774.443 
   12000     1480.639   -10452.688            0   -9993.5486    13679.461 
   12100    1514.0119   -10455.023            0   -9985.5358     13987.79 
   12200    1509.9023   -10457.615            0   -9989.4019    13949.822 
   12300    1459.9961   -10463.983            0   -10011.246    13488.744 
   12400    1428.6632   -10454.473            0   -10011.451    13199.263 
   12500    1497.4583   -10463.975            0   -9999.6201    13834.853 
   12600    1538.6491   -10469.337            0   -9992.2094     14215.41 
   12700    1540.5414   -10471.333            0   -9993.6187    14232.893 
   12800    1461.3574   -10466.694            0   -10013.535    13501.321 
   12900    1463.4395   -10470.572            0   -10016.767    13520.558 
   13000    1509.3669   -10473.398            0   -10005.351    13944.876 
   13100     1513.929   -10469.155            0   -9999.6933    13987.024 
   13200     1504.733   -10462.579            0   -9995.9688    13902.063 
   13300    1518.8914   -10463.646            0   -9992.6447    14032.871 
   13400    1508.6903   -10466.347            0   -9998.5092    13938.625 
   13500    1490.7384   -10479.028            0   -10016.758    13772.769 
   13600     1442.607   -10460.987            0   -10013.642    13328.088 
   13700    1520.1414   -10468.482            0    -9997.094     14044.42 
   13800    1518.4801   -10465.258            0   -9994.3846    14029.071 
   13900    1496.4328   -10463.535            0   -9999.4987    13825.378 
   14000    1460.9917   -10468.245            0   -10015.199    13497.942 
   14100    1469.6714   -10478.188            0   -10022.451    13578.133 
   14200    1488.8747   -10463.311            0   -10001.618     13755.55 
   14300    1513.3593   -10463.087            0   -9993.8016    13981.761 
   14400    1517.1662   -10469.875            0   -9999.4092    14016.933 
   14500    1471.2919   -10464.806            0   -10008.565    13593.105 
   14600    1522.0865   -10479.812            0    -10007.82    14062.391 
   14700     1505.765   -10461.148            0   -9994.2181    13911.597 
   14800    1550.1205   -10458.896            0   -9978.2108    14321.393 
   14900    1535.7269   -10460.409            0   -9984.1878    14188.413 
   15000    1482.7144   -10452.459            0   -9992.6765    13698.636 
   15100    1498.6738       -10456            0   -9991.2686    13846.083 
   15200    1505.8786   -10461.995            0   -9995.0296    13912.647 
   15300    1493.0069    -10462.06            0   -9999.0855    13793.727 
   15400    1511.3705   -10472.302            0   -10003.633    13963.386 
   15500    1482.8838   -10462.081            0   -10002.246    13700.201 
   15600    1496.0591    -10456.93            0   -9993.0091    13821.926 
   15700    1513.2543   -10459.641            0   -9990.3879    13980.791 
   15800    1504.1556   -10462.232            0   -9995.8011    13896.729 
   15900     1467.213   -10475.554            0   -10020.578     13555.42 
   16000    1480.9041   -10477.259            0   -10018.038     13681.91 
   16100    1464.9221   -10458.559            0   -10004.293    13534.255 
   16200    1514.5722   -10463.708            0   -9994.0466    13992.967 
   16300     1532.316   -10469.604            0   -9994.4408    14156.899 
   16400    1481.8962   -10462.122            0   -10002.593    13691.077 
   16500    1463.2698   -10454.944            0   -10001.192    13518.989 
   16600    1582.1997   -10474.171            0   -9983.5385     14617.77 
   16700    1539.5088   -10464.187            0   -9986.7924    14223.353 
   16800    1499.4662   -10468.704            0   -10003.727    13853.404 
   16900    1479.4082   -10472.663            0   -10013.906     13668.09 
   17000    1490.6506   -10466.937            0   -10004.693    13771.958 
   17100    1489.9371   -10454.962            0   -9992.9398    13765.365 
   17200    1513.4487    -10457.64            0   -9988.3266    13982.587 
   17300    1503.3808   -10463.367            0   -9997.1762     13889.57 
   17400    1483.8235   -10471.586            0    -10011.46    13708.883 
   17500    1489.7096   -10471.739            0   -10009.788    13763.263 
   17600    1501.1079   -10450.847            0   -9985.3605    13868.572 
   17700    1553.2082   -10463.028            0   -9981.3861     14349.92 
   17800    1506.4992   -10465.336            0   -9998.1779    13918.381 
   17900    1516.2889   -10476.995            0   -10006.801    14008.827 
   18000    1482.6209   -10465.918            0   -10006.165    13697.772 
   18100    1546.7885    -10469.34            0   -9989.6883    14290.609 
   18200    1520.9721   -10453.283            0   -9981.6372    14052.095 
   18300    1489.5536   -10451.912            0   -9990.0089    13761.822 
   18400    1508.5742    -10467.21            0   -9999.4085    13937.552 
   18500    1510.5845   -10468.384            0    -9999.959    13956.125 
   18600    1495.7184   -10458.238            0   -9994.4234    13818.778 
   18700    1533.8027    -10459.36            0   -9983.7357    14170.635 
   18800    1594.2637   -10456.014            0   -9961.6403    14729.227 
   18900    1520.0033   -10443.595            0   -9972.2492    14043.144 
   19000    1530.1547   -10459.698            0   -9985.2048    14136.932 
   19100    1506.8278   -10462.656            0   -9995.3964    13921.417 
   19200    1494.4224   -10465.386            0   -10001.973    13806.805 
   19300    1510.0698   -10472.482            0   -10004.217    13951.369 
   19400    1500.6448   -10456.308            0    -9990.965    13864.292 
   19500    1515.9631   -10448.212            0   -9978.1192    14005.817 
   19600    1494.0016    -10451.62            0   -9988.3375    13802.917 
   19700     1480.925   -10458.476            0    -9999.248    13682.104 
   19800     1483.825   -10460.065            0   -9999.9386    13708.897 
   19900     1481.465   -10456.659            0   -9997.2642    13687.093 
   20000    1504.2357   -10461.998            0    -9995.542    13897.469 
   20100    1473.9267   -10458.986            0   -10001.929    13617.447 
   20200     1499.636   -10472.895            0   -10007.865    13854.972 
   20300    1470.9906   -10464.026            0   -10007.879    13590.321 
   20400    1515.6975   -10470.623            0   -10000.613    14003.363 
   20500    1527.4068    -10462.49            0   -9988.8489    14111.544 
   20600     1497.322   -10451.057            0   -9986.7444    13833.594 
   20700    1469.6126   -10454.016            0    -9998.296    13577.589 
   20800    1469.5725   -10464.521            0   -10008.813     13577.22 
   20900     1483.254   -10468.862            0   -10008.913    13703.621 
   21000    1520.4476   -10461.105            0   -9989.6221    14047.249 
   21100    1549.6453   -10465.718            0   -9985.1804    14317.003 
   21200    1500.8827   -10462.874            0   -9997.4577    13866.491 
   21300    1487.0757   -10464.345            0    -10003.21    13738.929 
   21400    1497.5344   -10465.477            0   -10001.099    13835.556 
   21500    1520.9293   -10467.438            0   -9995.8058    14051.699 
   21600      1524.03   -10453.996            0   -9981.4019    14080.346 
   21700    1532.5227   -10446.123            0   -9970.8953    14158.809 
   21800    1566.2435   -10463.294            0   -9977.6095    14470.352 
   21900    1498.5247   -10462.972            0   -9998.2865    13844.705 
   22000    1471.9817   -10457.211            0   -10000.757    13599.478 
   22100    1519.1546   -10458.678            0   -9987.5954    14035.303 
   22200    1524.8515   -10457.913            0   -9985.0641    14087.936 
   22300    1491.0496   -10462.051            0   -9999.6836    13775.643 
   22400    1467.1185   -10466.206            0    -10011.26    13554.547 
   22500    1481.3666    -10465.12            0   -10005.756    13686.184 
   22600    1524.3464   -10469.602            0   -9996.9092    14083.269 
   22700    1517.5132   -10464.614            0   -9994.0409    14020.138 
   22800      1470.29   -10458.603            0   -10002.673    13583.848 
   22900    1499.8482   -10486.094            0   -10020.998    13856.933 
   23000     1435.282   -10460.431            0   -10015.357    13260.414 
   23100    1482.1136   -10460.664            0   -10001.068    13693.085 
   23200    1521.5431   -10466.229            0   -9994.4055     14057.37 
   23300    1519.8386   -10464.652            0   -9993.3579    14041.622 
   23400    1519.1178   -10479.166            0   -10008.095    14034.962 
   23500    1482.3792   -10478.785            0   -10019.107    13695.539 
   23600    1485.9364   -10475.128            0   -10014.346    13728.404 
   23700    1493.4108   -10466.637            0   -10003.537    13797.459 
   23800    1479.8762   -10451.339            0   -9992.4365    13672.414 
   23900    1517.3842   -10458.292            0   -9987.7586    14018.946 
   24000    1517.3389   -10469.234            0    -9998.715    14018.528 
   24100    1463.8859   -10459.298            0   -10005.354    13524.681 
   24200    1494.7714   -10462.562            0   -9999.0412    13810.029 
   24300    1503.4303   -10461.345            0   -9995.1384    13890.027 
   24400    1491.4981   -10459.442            0   -9996.9362    13779.787 
   24500     1502.073   -10463.186            0   -9997.4001    13877.488 
   24600    1513.3016   -10464.229            0   -9994.9611    13981.228 
   24700    1490.1186   -10458.581            0   -9996.5026    13767.042 
   24800    1483.3437   -10458.689            0   -9998.7119    13704.449 
   24900    1517.6467   -10461.244            0   -9990.6294    14021.371 
   25000    1541.6487     -10452.2            0   -9974.1425    14243.123 
   25100    1497.8547   -10445.661            0   -9981.1837    13838.516 
   25200    1492.8302   -10459.041            0   -9996.1217    13792.095 
   25300    1497.0682   -10465.459            0   -10001.225    13831.249 
   25400    1481.2864   -10460.567            0   -10001.228    13685.443 
   25500    1515.0551   -10463.796            0   -9993.9847    13997.428 
   25600    1534.6827   -10454.677            0   -9978.7792    14178.765 
   25700    1553.3862   -10453.417            0   -9971.7196    14351.564 
   25800    1478.5925   -10453.342            0   -9994.8375    13660.554 
   25900    1519.2094   -10474.448            0   -10003.349     14035.81 
   26000    1472.7721   -10468.191            0   -10011.492     13606.78 
   26100    1504.0554    -10475.65            0    -10009.25    13895.803 
   26200    1504.6247   -10460.247            0   -9993.6703    13901.063 
   26300     1541.396   -10461.054            0   -9983.0744    14240.788 
   26400    1512.9558   -10459.168            0   -9990.0078    13978.033 
   26500     1508.881   -10466.554            0   -9998.6571    13940.386 
   26600    1458.8722   -10459.696            0   -10007.307     13478.36 
   26700    1502.8541   -10468.415            0   -10002.387    13884.705 
   26800    1482.7137    -10456.04            0   -9996.2578     13698.63 
   26900    1523.8882    -10461.15            0   -9988.6002    14079.036 
   27000    1548.5488   -10447.667            0   -9967.4696    14306.873 
   27100    1565.1806   -10451.467            0    -9966.112    14460.532 
   27200    1528.7301   -10453.069            0   -9979.0176     14123.77 
   27300    1521.5683   -10461.782            0   -9989.9514    14057.603 
   27400    1489.6228   -10461.424            0   -9999.4991    13762.462 
   27500    1476.8534   -10462.605            0    -10004.64    13644.486 
   27600    1510.4289   -10474.515            0   -10006.138    13954.687 
   27700    1497.0395   -10466.014            0   -10001.789    13830.984 
   27800    1499.3909   -10452.719            0    -9987.765    13852.708 
   27900    1537.1408   -10456.171            0   -9979.5111    14201.475 
   28000    1511.5163   -10458.678            0   -9989.9639    13964.734 
   28100    1484.8381   -10465.747            0   -10005.306    13718.257 
   28200    1487.6032    -10465.02            0   -10003.721    13743.803 
   28300    1528.3355   -10473.194            0    -9999.265    14120.124 
   28400     1499.631   -10462.105            0   -9997.0773    13854.926 
   28500    1519.7998   -10460.625            0   -9989.3425    14041.264 
   28600    1508.2179    -10449.56            0   -9981.8686     13934.26 
   28700    1521.4168   -10462.805            0   -9991.0208    14056.203 
   28800    1476.6564   -10463.596            0   -10005.692    13642.666 
   28900    1483.0562   -10463.745            0   -10003.857    13701.793 
   29000    1484.2849   -10459.343            0   -9999.0733    13713.146 
   29100    1538.3524   -10465.887            0   -9988.8512    14212.669 
   29200    1543.8332   -10449.784            0   -9971.0491    14263.306 
   29300    1511.4687   -10447.374            0    -9978.675    13964.294 
   29400    1468.4995   -10449.698            0   -9994.3238    13567.306 
   29500    1492.7516   -10460.878            0    -9997.983    13791.368 
   29600    1475.6183   -10455.244            0   -9997.6621    13633.076 
   29700    1519.8393   -10458.195            0   -9986.9006    14041.628 
   29800    1542.5266   -10449.123            0   -9970.7931    14251.234 
   29900    1520.2214   -10454.046            0   -9982.6327    14045.159 
   30000    1502.0094   -10467.184            0   -10001.418    13876.901 
   30100    1477.7816   -10460.721            0   -10002.468    13653.062 
   30200    1523.6303   -10464.656            0    -9992.186    14076.653 
   30300    1503.5802    -10451.26            0   -9985.0069    13891.413 
   30400    1537.0142   -10459.702            0   -9983.0816    14200.306 
   30500    1514.1609   -10471.682            0   -10002.148    13989.166 
   30600    1457.0958   -10463.739            0   -10011.901    13461.948 
   30700    1492.2727   -10464.454            0   -10001.708    13786.943 
   30800    1517.6234   -10461.718            0   -9991.1102    14021.156 
   30900    1514.7412   -10457.135            0    -9987.421    13994.528 
   31000    1525.6354   -10459.816            0   -9986.7243    14095.179 
   31100    1513.2494   -10469.642            0    -10000.39    13980.745 
   31200    1489.3062   -10474.688            0   -10012.861    13759.537 
   31300     1468.154   -10463.171            0   -10007.904    13564.114 
   31400    1533.7855   -10468.472            0   -9992.8523    14170.476 
   31500    1514.8059   -10461.632            0    -9991.898    13995.125 
   31600      1474.63   -10459.422            0   -10002.146    13623.945 
   31700    1445.5836   -10465.561            0   -10017.292    13355.589 
   31800    1451.5842   -10473.438            0   -10023.309    13411.027 
   31900    1495.9353   -10466.365            0   -10002.483    13820.782 
   32000    1516.3077   -10463.826            0   -9993.6266        14009 
   32100    1521.5015   -10472.205            0   -10000.395    14056.985 
   32200    1478.4477   -10470.091            0   -10011.631    13659.217 
   32300      1506.53   -10475.761            0   -10008.593    13918.666 
   32400    1528.4394   -10461.212            0   -9987.2504    14121.084 
   32500    1519.1634   -10458.789            0    -9987.704    14035.384 
   32600    1537.4813   -10472.396            0   -9995.6301    14204.621 
   32700    1470.3291   -10463.271            0   -10007.329     13584.21 
   32800    1491.9861   -10472.778            0   -10010.121    13784.296 
   32900    1473.0329    -10456.47            0   -9999.6895    13609.189 
   33000     1510.727   -10447.087            0   -9978.6179    13957.441 
   33100    1541.6896   -10460.706            0   -9982.6357    14243.501 
   33200     1517.873   -10465.875            0     -9995.19    14023.462 
   33300    1502.2398   -10469.195            0   -10003.358    13879.029 
   33400    1505.2659   -10473.824            0   -10007.049    13906.987 
   33500    1540.4345   -10483.133            0   -10005.452    14231.905 
   33600    1481.2506   -10454.208            0   -9994.8795    13685.112 
   33700    1542.7822   -10456.524            0   -9978.1152    14253.595 
   33800    1503.6941    -10454.06            0   -9987.7714    13892.465 
   33900    1505.6498   -10467.891            0   -10000.996    13910.533 
   34000    1482.3618   -10466.752            0   -10007.079    13695.378 
   34100    1503.2843   -10473.226            0   -10007.065    13888.679 
   34200    1491.3585   -10465.244            0   -10002.781    13778.498 
   34300    1517.3298   -10464.784            0   -9994.2677    14018.444 
   34400    1559.8154   -10453.143            0   -9969.4515    14410.964 
   34500    1562.0915   -10456.259            0   -9971.8619    14431.992 
   34600    1512.9937   -10457.479            0   -9988.3076    13978.383 
   34700    1493.0608    -10459.02            0   -9996.0287    13794.225 
   34800    1505.1908   -10463.723            0   -9996.9704    13906.293 
   34900    1513.9741    -10465.82            0   -9996.3444     13987.44 
   35000     1517.421   -10461.254            0   -9990.7091    14019.286 
   35100    1511.1331   -10458.976            0   -9990.3806    13961.193 
   35200    1470.0521   -10462.016            0    -10006.16     13581.65 
   35300    1463.9762   -10463.942            0   -10009.971    13525.515 
   35400    1499.1466   -10462.183            0   -9997.3046    13850.451 
   35500    1536.3958   -10468.461            0   -9992.0321    14194.592 
   35600    1508.8931   -10464.285            0   -9996.3848    13940.498 
   35700    1481.5972   -10460.696            0    -10001.26    13688.315 
   35800    1493.8538   -10460.519            0   -9997.2818    13801.551 
   35900    1484.1817   -10438.665            0   -9978.4276    13712.192 
   36000    1539.0393   -10450.907            0   -9973.6587    14219.016 
   36100    1532.0797   -10458.327            0   -9983.2368    14154.717 
   36200    1503.5382   -10458.945            0   -9992.7055    13891.024 
   36300    1455.2008   -10452.528            0   -10001.278    13444.441 
   36400    1494.4192    -10467.97            0   -10004.558    13806.775 
   36500    1470.8837   -10472.286            0   -10016.172    13589.333 
   36600    1475.2392   -10486.943            0   -10029.479    13629.573 
   36700    1453.2547   -10465.985            0   -10015.338    13426.461 
   36800    1522.2275   -10474.477            0   -10002.441    14063.693 
   36900    1518.7788   -10466.189            0   -9995.2236    14031.831 
   37000    1488.4224   -10460.189            0    -9998.637    13751.372 
   37100    1485.0353   -10458.186            0   -9997.6834    13720.078 
   37200    1541.4578   -10463.973            0   -9985.9742     14241.36 
   37300    1554.5055   -10465.619            0   -9983.5746    14361.906 
   37400    1491.1451   -10463.184            0   -10000.787    13776.526 
   37500     1467.393   -10465.001            0    -10009.97    13557.083 
   37600    1498.2555    -10468.13            0   -10003.528    13842.219 
   37700    1502.6091   -10460.944            0   -9994.9926    13882.441 
   37800    1495.4343   -10456.033            0   -9992.3064    13816.153 
   37900    1481.4863   -10448.953            0   -9989.5515     13687.29 
   38000    1519.3214   -10460.338            0   -9989.2038    14036.843 
   38100    1509.7719   -10459.596            0   -9991.4229    13948.617 
   38200    1473.7491   -10465.018            0   -10008.015    13615.806 
   38300    1461.7323   -10470.529            0   -10017.253    13504.785 
   38400    1499.4386   -10472.983            0   -10008.015    13853.149 
   38500    1523.1108   -10467.494            0    -9995.185    14071.854 
   38600    1510.2383   -10460.844            0   -9992.5263    13952.926 
   38700    1523.5383   -10465.195            0   -9992.7536    14075.804 
   38800    1494.6796    -10465.03            0   -10001.537    13809.181 
   38900    1468.0916   -10459.209            0   -10003.961    13563.538 
   39000    1502.0871   -10448.063            0   -9982.2736    13877.618 
   39100    1548.9145   -10455.863            0   -9975.5525    14310.251 
   39200    1492.9663   -10455.792            0   -9992.8305    13793.352 
   39300    1515.4051   -10469.511            0   -9999.5911    14000.662 
   39400    1491.8425   -10466.235            0   -10003.622    13782.969 
   39500    1474.9692   -10460.479            0   -10003.098    13627.079 
   39600    1537.6034   -10462.801            0   -9985.9975     14205.75 
   39700    1500.1312   -10444.476            0   -9979.2923    13859.548 
   39800     1534.632   -10461.271            0   -9985.3896    14178.297 
   39900    1505.0521   -10470.574            0   -10003.865    13905.012 
   40000    1485.0326   -10464.051            0   -10003.549    13720.054 
   40100     1530.964   -10471.168            0   -9996.4236    14144.408 
   40200    1517.9998   -10465.584            0   -9994.8597    14024.634 
   40300     1497.798   -10468.253            0   -10003.793    13837.992 
   40400    1437.9218   -10458.553            0    -10012.66    13284.802 
   40500    1491.8081    -10466.89            0   -10004.287    13782.651 
   40600    1516.3199   -10457.821            0   -9987.6179    14009.114 
   40700    1524.8152   -10464.974            0   -9992.1359    14087.601 
   40800    1509.9562   -10471.651            0   -10003.421     13950.32 
   40900    1477.8579   -10465.387            0    -10007.11    13653.767 
   41000    1516.2238   -10473.654            0   -10003.481    14008.226 
   41100    1548.4908   -10461.756            0   -9981.5765    14306.336 
   41200    1546.7459   -10458.606            0   -9978.9681    14290.216 
   41300    1516.8812   -10460.629            0   -9990.2515    14014.299 
   41400    1490.0343   -10463.701            0   -10001.649    13766.264 
   41500    1469.2923   -10461.724            0   -10006.103     13574.63 
   41600    1501.4486   -10458.398            0   -9992.8066    13871.719 
   41700    1513.0239   -10446.787            0   -9977.6058    13978.662 
   41800    1511.3553   -10454.047            0    -9985.383    13963.246 
   41900    1450.1745   -10445.912            0   -9996.2201    13398.004 
   42000    1489.5059    -10460.89            0   -9999.0012    13761.382 
   42100    1512.4651   -10464.076            0   -9995.0682    13973.499 
   42200    1558.8916   -10458.153            0   -9974.7487    14402.429 
   42300    1524.1453   -10442.985            0   -9970.3554    14081.412 
   42400    1549.2176   -10466.637            0    -9986.232    14313.051 
   42500    1529.4416   -10472.162            0   -9997.8898    14130.343 
   42600    1470.4625    -10462.99            0   -10007.007    13585.441 
   42700    1508.1996   -10469.104            0   -10001.419    13934.091 
   42800    1537.5235   -10467.935            0   -9991.1561    14205.011 
   42900    1483.5632    -10451.27            0   -9991.2239    13706.478 
   43000    1538.3485   -10459.631            0   -9982.5966    14212.633 
   43100    1510.6254   -10455.569            0   -9987.1318    13956.502 
   43200      1502.23   -10468.754            0    -10002.92    13878.938 
   43300    1456.5666   -10461.143            0   -10009.468    13457.059 
   43400    1526.2996   -10474.386            0   -10001.088    14101.314 
   43500    1510.3585   -10460.487            0   -9992.1325    13954.037 
   43600    1498.8941    -10458.31            0   -9993.5099    13848.119 
   43700    1542.3859   -10471.583            0   -9993.2967    14249.934 
   43800      1502.87    -10464.56            0    -9998.527    13884.851 
   43900    1489.0016   -10463.127            0   -10001.395    13756.723 
   44000    1535.9905    -10467.62            0    -9991.317    14190.848 
   44100    1491.1195   -10444.354            0   -9981.9657     13776.29 
   44200    1511.6461   -10460.781            0   -9992.0272    13965.932 
   44300    1500.3678   -10475.508            0   -10010.251    13861.734 
   44400    1463.9903   -10463.736            0    -10009.76    13525.646 
   44500    1507.7358   -10465.937            0    -9998.395    13929.806 
   44600    1512.5776   -10464.677            0   -9995.6339    13974.538 
   44700    1516.1525   -10469.604            0   -9999.4521    14007.567 
   44800    1494.4551   -10470.448            0   -10007.025    13807.107 
   44900     1493.937   -10470.809            0   -10007.546     13802.32 
   45000    1483.7027   -10465.314            0   -10005.226    13707.767 
   45100    1494.5323   -10459.407            0   -9995.9601     13807.82 
   45200    1529.0981   -10458.893            0   -9984.7268     14127.17 
   45300    1509.9289   -10455.957            0   -9987.7355    13950.068 
   45400    1466.8831   -10463.951            0   -10009.078    13552.372 
   45500    1487.8397   -10472.914            0   -10011.542    13745.988 
   45600    1484.0767   -10459.862            0   -9999.6574    13711.222 
   45700    1503.3439   -10457.084            0   -9990.9044    13889.229 
   45800    1530.6672   -10469.615            0   -9994.9629    14141.666 
   45900    1487.2823   -10457.964            0   -9996.7649    13740.838 
   46000    1515.3817   -10461.032            0   -9991.1198    14000.446 
   46100    1587.8424   -10464.577            0    -9972.195    14669.902 
   46200    1527.0252   -10450.918            0    -9977.395    14108.018 
   46300     1532.982   -10469.523            0   -9994.1533    14163.052 
   46400    1479.1127   -10462.253            0   -10003.587     13665.36 
   46500    1514.3073   -10477.075            0   -10007.496    13990.519 
   46600    1486.1858   -10472.257            0   -10011.398    13730.708 
   46700    1505.3392    -10469.19            0   -10002.392    13907.664 
   46800    1497.3438   -10449.462            0    -9985.143    13833.795 
   46900    1530.4954   -10455.216            0   -9980.6167    14140.079 
   47000    1513.2958   -10459.335            0   -9990.0694    13981.174 
   47100    1493.0602    -10469.69            0     -10006.7    13794.219 
   47200    1463.8936   -10461.672            0   -10007.726    13524.752 
   47300    1441.5323   -10449.001            0   -10001.989    13318.159 
   47400      1493.32   -10456.323            0    -9993.252     13796.62 
   47500    1521.0519   -10453.275            0   -9981.6047    14052.832 
   47600    1552.8895   -10446.905            0   -9965.3619    14346.976 
   47700    1536.4648   -10454.521            0   -9978.0713     14195.23 
   47800    1488.1932   -10453.646            0   -9992.1651    13749.254 
   47900    1493.3172   -10456.489            0   -9993.4189    13796.594 
   48000    1495.1646   -10457.363            0   -9993.7201    13813.662 
   48100    1495.1042   -10466.897            0   -10003.273    13813.104 
   48200    1498.0112   -10483.272            0   -10018.747    13839.961 
   48300    1463.0523   -10470.398            0   -10016.713     13516.98 
   48400    1508.0385   -10469.349            0   -10001.713    13932.602 
   48500    1509.0906   -10463.471            0   -9995.5091    13942.323 
   48600    1501.4576   -10455.279            0   -9989.6847    13871.802 
   48700    1576.1549   -10475.545            0    -9986.787    14561.922 
   48800    1517.0233   -10472.751            0    -10002.33    14015.612 
   48900    1466.7625   -10471.166            0    -10016.33    13551.258 
   49000    1502.2842   -10478.396            0   -10012.545    13879.439 
   49100    1516.8182   -10474.201            0   -10003.843    14013.717 
   49200    1507.8668   -10460.939            0   -9993.3574    13931.016 
   49300    1482.9437   -10449.204            0   -9989.3505    13700.755 
   49400    1522.3589   -10457.275            0   -9985.1994    14064.907 
   49500    1526.9649    -10456.18            0   -9982.6754    14107.461 
   49600    1494.6207    -10456.09            0   -9992.6153    13808.637 
   49700    1473.4684   -10465.987            0   -10009.072    13613.213 
   49800    1498.0174   -10470.671            0   -10006.143    13840.019 
   49900      1517.43   -10468.259            0   -9997.7112     14019.37 
   50000    1494.0767   -10458.096            0   -9994.7899    13803.611 
Loop time of 9013.24 on 1 procs for 50000 steps with 2400 atoms

Performance: 0.479 ns/day, 50.074 hours/ns, 5.547 timesteps/s
97.8% CPU use with 1 MPI tasks x 1 OpenMP threads

MPI task timing breakdown:
Section |  min time  |  avg time  |  max time  |%varavg| %total
---------------------------------------------------------------
Pair    | 8974.4     | 8974.4     | 8974.4     |   0.0 | 99.57
Neigh   | 32.072     | 32.072     | 32.072     |   0.0 |  0.36
Comm    | 2.8589     | 2.8589     | 2.8589     |   0.0 |  0.03
Output  | 0.01549    | 0.01549    | 0.01549    |   0.0 |  0.00
Modify  | 3.0476     | 3.0476     | 3.0476     |   0.0 |  0.03
Other   |            | 0.8503     |            |       |  0.01

Nlocal:        2400.00 ave        2400 max        2400 min
Histogram: 1 0 0 0 0 0 0 0 0 0
Nghost:        4664.00 ave        4664 max        4664 min
Histogram: 1 0 0 0 0 0 0 0 0 0
Neighs:         0.00000 ave           0 max           0 min
Histogram: 1 0 0 0 0 0 0 0 0 0
FullNghs:      228724.0 ave      228724 max      228724 min
Histogram: 1 0 0 0 0 0 0 0 0 0

Total # of neighbors = 228724
Ave neighs/atom = 95.301667
Neighbor list builds = 2409
Dangerous builds = 0
Setting up Verlet run ...
  Unit style    : metal
  Current step  : 50000
  Time step     : 0.001
Per MPI rank memory allocation (min/avg/max) = 4.234 | 4.234 | 4.234 Mbytes
Step Temp E_pair TotEng f_3 v_tdiff 
   50000         1500   -10458.102   -9992.9589            0            0 
   51000    1528.0958   -10466.823   -9992.9682    60.012243  0.047355404 
   52000    1501.8561   -10458.708   -9992.9898    115.00411  0.075319238 
   53000    1525.3173   -10465.963   -9992.9695     162.8159  0.081522437 
   54000    1496.1867   -10456.928   -9992.9676    211.03113  0.086313334 
   55000    1525.2175   -10465.922   -9992.9594    259.82386  0.090697199 
   56000    1503.8175   -10459.293   -9992.9666    308.22243  0.081766566 
   57000    1515.8641    -10463.02   -9992.9575    356.37576  0.086984834 
   58000    1530.6562   -10467.605   -9992.9565    403.29063  0.089521626 
   59000    1503.5763   -10459.222   -9992.9701    450.34727   0.09339846 
   60000    1496.9654   -10457.167   -9992.9654    496.33704  0.098821488 
   61000     1551.831   -10474.179   -9992.9635    543.85247   0.10214507 
   62000    1517.1065   -10463.422   -9992.9746    591.89318  0.091759477 
   63000    1518.1803   -10463.771   -9992.9902    639.52048  0.091077744 
   64000    1507.2222   -10460.355   -9992.9733    686.41431  0.093442382 
   65000    1518.2283   -10463.754   -9992.9588    736.34125  0.091685129 
   66000    1509.5198   -10461.075   -9992.9805    782.51035  0.085801302 
   67000    1505.5195   -10459.844   -9992.9895    827.59649  0.092575272 
   68000    1545.3963   -10472.188   -9992.9687    876.52496   0.08386562 
   69000    1527.9238   -10466.785   -9992.9835    924.04458  0.092387538 
   70000    1526.0217   -10466.213   -9993.0011    972.68674  0.094302649 
   71000    1516.4671   -10463.241   -9992.9922    1019.5143  0.092269686 
   72000    1508.3411   -10460.725   -9992.9954    1067.8995  0.094211527 
   73000     1534.946   -10468.979   -9993.0003    1117.8321   0.09468972 
   74000    1519.8171   -10464.282   -9992.9944    1165.8494  0.089010619 
   75000    1542.7414   -10471.395    -9992.998     1214.513  0.094929995 
   76000    1521.3393   -10464.771   -9993.0107    1263.2532  0.086178516 
   77000    1525.4811   -10466.056   -9993.0115    1308.2306  0.083581807 
   78000    1512.8046   -10462.106   -9992.9932     1356.134  0.087054061 
   79000    1508.6073   -10460.785   -9992.9734    1402.8088    0.0891589 
   80000    1489.5156    -10454.87   -9992.9787    1449.1945  0.093894088 
   81000    1529.0557   -10467.146   -9992.9928    1495.9097  0.091567044 
   82000    1544.0368   -10471.793   -9992.9947    1542.9293  0.090644144 
   83000    1484.9395   -10453.448   -9992.9758    1592.2344  0.086108278 
   84000    1509.1541   -10460.942   -9992.9611    1637.9099  0.093961436 
   85000    1476.7853   -10450.893   -9992.9487    1683.5386  0.086073907 
   86000    1489.9326   -10454.986   -9992.9655    1730.6375  0.094064302 
   87000    1513.2707   -10462.232   -9992.9746    1777.9746  0.092765426 
   88000    1494.8478   -10456.521   -9992.9765    1826.1974  0.090069009 
   89000    1529.6832   -10467.328   -9992.9809    1871.7505  0.091301528 
   90000    1519.5777   -10464.195   -9992.9817     1917.279  0.092576366 
   91000    1511.5821   -10461.696   -9992.9621    1966.4299  0.084796144 
   92000    1525.7059   -10466.085   -9992.9711    2013.6203  0.089149641 
   93000    1513.5968   -10462.335    -9992.976     2061.631   0.10026813 
   94000    1548.2755   -10473.077   -9992.9645    2108.3036  0.094176549 
   95000    1508.4269    -10460.73   -9992.9747    2155.7848  0.091172055 
   96000    1501.1038   -10458.472   -9992.9868    2198.0445  0.093907615 
   97000    1493.6803   -10456.138   -9992.9548    2244.3579  0.097512179 
   98000     1520.168   -10464.359   -9992.9627    2290.6166  0.092105673 
   99000    1495.2857   -10456.653   -9992.9726    2339.1647  0.093333587 
  100000     1503.826   -10459.289     -9992.96    2385.0354  0.096207348 
  101000    1506.4819   -10460.104   -9992.9519    2431.8933  0.098593965 
  102000    1538.4698   -10470.014   -9992.9417    2479.4446  0.088467455 
  103000    1524.7926    -10465.81   -9992.9789    2528.9697  0.090346406 
  104000     1516.508   -10463.195   -9992.9336    2576.2129  0.087624233 
  105000    1500.4369   -10458.227   -9992.9485    2625.1052  0.087557089 
  106000    1541.5555   -10470.954   -9992.9253    2672.5002  0.095892256 
  107000    1500.5692   -10458.273   -9992.9543    2721.0352  0.082165777 
  108000    1551.9828   -10474.227   -9992.9643    2770.0691  0.085664215 
  109000    1486.9724   -10454.028   -9992.9255    2817.7585   0.09075441 
  110000    1499.8495   -10458.052   -9992.9558    2862.6534  0.095780953 
  111000    1505.9218   -10459.927   -9992.9478    2909.8911  0.088689412 
  112000     1550.541   -10473.759   -9992.9436    2957.4734  0.094127518 
  113000    1524.5395   -10465.696   -9992.9441    3004.8404  0.092853345 
  114000     1504.444   -10459.476   -9992.9549     3051.782  0.093000512 
  115000    1480.3614   -10451.987   -9992.9345    3097.9394  0.095492264 
  116000    1510.9811   -10461.484   -9992.9366    3146.1934   0.09264883 
  117000    1476.5965   -10450.807   -9992.9213    3192.4815  0.089680944 
  118000    1501.6157   -10458.572   -9992.9286    3237.4798  0.087486804 
  119000    1512.2363   -10461.863   -9992.9262    3284.2214  0.092082142 
  120000    1499.7639   -10457.985   -9992.9159    3332.8818  0.088124231 
  121000    1479.3099   -10451.624   -9992.8973    3380.1506   0.08400686 
  122000    1486.9271   -10454.006   -9992.9171    3428.5072  0.091456924 
  123000    1551.0912   -10473.922   -9992.9361    3477.2176  0.082871569 
  124000    1527.6723   -10466.657   -9992.9336    3525.9885  0.094620284 
  125000    1489.8372   -10454.911   -9992.9199    3572.6616  0.095822599 
  126000    1531.4025   -10467.793   -9992.9126    3619.7226  0.096585576 
  127000    1520.1485   -10464.311     -9992.92    3664.4119  0.090037857 
  128000    1492.6594   -10455.784   -9992.9178    3713.9649  0.084284795 
  129000    1503.5539   -10459.148   -9992.9038    3759.9293  0.086402996 
  130000    1541.9351   -10471.067   -9992.9209    3806.5443  0.090238311 
  131000    1486.1738   -10453.761   -9992.9055    3854.0239  0.091566835 
  132000    1491.0347   -10455.278   -9992.9158     3902.427  0.090630202 
  133000    1505.9201    -10459.89   -9992.9112    3952.7687  0.088216065 
  134000    1522.1663   -10464.955   -9992.9388    3999.8008  0.092325093 
  135000    1483.5634   -10452.962   -9992.9162    4048.8807   0.09577026 
  136000    1531.5122   -10467.867   -9992.9528    4096.3896  0.099191015 
  137000    1493.5669   -10456.067   -9992.9196    4144.5948  0.097065514 
  138000    1534.6273    -10468.83   -9992.9497    4190.3487  0.094193687 
  139000    1490.3211   -10455.064   -9992.9232    4237.8782  0.089495291 
  140000    1490.8071    -10455.22   -9992.9278    4283.0828  0.093627835 
  141000    1529.4822   -10467.217   -9992.9319    4328.3021  0.091713051 
  142000    1545.2518   -10472.092   -9992.9168    4375.2981  0.087134495 
  143000     1483.475   -10452.925   -9992.9065    4422.2142  0.093841982 
  144000    1532.2933   -10468.074   -9992.9176    4469.8481  0.092781061 
  145000    1501.2036   -10458.437   -9992.9207    4517.2078  0.093457368 
  146000    1508.8675   -10460.828   -9992.9357    4563.6381  0.087519763 
  147000    1503.2637    -10459.08   -9992.9254    4612.9586  0.089593117 
  148000    1541.0558   -10470.811   -9992.9367     4660.863  0.090574439 
  149000    1496.0551   -10456.846   -9992.9264    4705.0534  0.089272802 
  150000    1505.3139   -10459.727   -9992.9361    4750.7123  0.093234397 
  151000    1514.9657   -10462.716   -9992.9324    4796.0331   0.10136939 
  152000    1486.3483    -10453.83   -9992.9208    4841.2865  0.093500802 
  153000    1514.8484   -10462.665    -9992.918    4887.9373  0.086777001 
  154000    1504.6892   -10459.523   -9992.9267    4934.1762  0.092106468 
  155000    1520.8855   -10464.531   -9992.9121    4979.4262  0.097101818 
  156000    1526.2276   -10466.186   -9992.9099    5025.2152  0.085228823 
  157000    1515.9078    -10462.98   -9992.9049    5072.3134   0.09714645 
  158000    1523.4023   -10465.293   -9992.8934    5120.2995  0.098632849 
  159000    1491.8596   -10455.501   -9992.8826    5168.6687  0.094137863 
  160000    1513.8818   -10462.301   -9992.8535     5216.685  0.085378184 
  161000    1499.2249   -10457.778   -9992.8761    5265.1352  0.087276365 
  162000    1519.8734   -10464.182   -9992.8764    5309.8528  0.092009517 
  163000    1510.0466   -10461.134   -9992.8757    5359.0514  0.093512399 
  164000    1517.2213    -10463.38    -9992.897    5408.5242  0.088124995 
  165000    1545.0713   -10472.005   -9992.8858    5454.1672  0.096019696 
  166000    1519.2134   -10463.941   -9992.8408    5502.0412  0.094956817 
  167000    1510.8086   -10461.359   -9992.8651    5547.4855  0.099276246 
  168000       1487.6   -10454.152   -9992.8549    5593.9337  0.091441026 
  169000    1497.1558   -10457.108   -9992.8477    5640.0893  0.091062197 
  170000    1506.6889   -10460.052   -9992.8349    5686.2695  0.094658506 
  171000    1493.8707   -10456.083   -9992.8411    5732.3811  0.094274038 
  172000    1529.5115    -10467.13   -9992.8359    5778.2514  0.090553246 
[...]
Neigh   | 138.61     | 138.61     | 138.61     |   0.0 |  0.38
Comm    | 11.657     | 11.657     | 11.657     |   0.0 |  0.03
Output  | 0.0059664  | 0.0059664  | 0.0059664  |   0.0 |  0.00
Modify  | 9.8021     | 9.8021     | 9.8021     |   0.0 |  0.03
Other   |            | 3.545      |            |       |  0.01

Nlocal:        2400.00 ave        2400 max        2400 min
Histogram: 1 0 0 0 0 0 0 0 0 0
Nghost:        4779.00 ave        4779 max        4779 min
Histogram: 1 0 0 0 0 0 0 0 0 0
Neighs:         0.00000 ave           0 max           0 min
Histogram: 1 0 0 0 0 0 0 0 0 0
FullNghs:      229312.0 ave      229312 max      229312 min
Histogram: 1 0 0 0 0 0 0 0 0 0

Total # of neighbors = 229312
Ave neighs/atom = 95.546667
Neighbor list builds = 10272
Dangerous builds = 0
Setting up Verlet run ...
  Unit style    : metal
  Current step  : 250000
  Time step     : 0.001
Per MPI rank memory allocation (min/avg/max) = 4.485 | 4.485 | 4.485 Mbytes
Step Temp E_pair TotEng f_3 v_tdiff f_ave 
  250000     1528.802   -10466.749    -9992.675            0  0.091645056  0.091645056 
  251000    1488.3524   -10454.183   -9992.6518     46.69649  0.091894489  0.091769773 
  252000    1513.9667   -10462.141    -9992.667    94.018991   0.09047302  0.091337522 
  253000    1522.6388    -10464.82   -9992.6575    140.13175  0.090570111  0.091145669 
  254000    1518.2798   -10463.496    -9992.685    189.01136  0.095560307  0.092028597 
  255000    1538.8345    -10469.86   -9992.6753    235.38761  0.093370443  0.092252238 
  256000    1510.9855   -10461.228   -9992.6784    278.94882  0.096014368  0.092789685 
  257000    1497.1333    -10456.92   -9992.6662    328.30714  0.094844462  0.093046532 
  258000    1501.7373   -10458.324   -9992.6429    376.36967  0.088852124  0.092580487 
  259000     1527.448   -10466.303   -9992.6486    424.57463  0.099062518   0.09322869 
  260000    1506.3053    -10459.73   -9992.6326    472.85554  0.091849998  0.093103354 
  261000    1487.2421   -10453.818   -9992.6319    519.78458  0.088628162  0.092730421 
  262000    1517.6482   -10463.262   -9992.6465    565.15935  0.093233167  0.092769094 
  263000    1525.6385   -10465.723   -9992.6296     613.2062  0.090317122  0.092593953 
  264000    1499.7453   -10457.666   -9992.6024    660.13251   0.08633216    0.0921765 
  265000    1515.8731   -10462.665   -9992.6002    706.53567  0.084502756  0.091696891 
  266000    1489.0115   -10454.344   -9992.6086    752.31303  0.087560803  0.091453592 
  267000    1482.7701    -10452.41   -9992.6104    798.60299  0.091529225  0.091457794 
  268000    1525.7922   -10465.754   -9992.6133    845.64396  0.093111041  0.091544807 
  269000    1540.0637   -10470.177   -9992.6106    892.75328  0.090380759  0.091486605 
  270000    1535.5814   -10468.776   -9992.6001    941.32504   0.09167509   0.09149558 
  271000    1507.3215   -10460.022   -9992.6095    991.68747  0.084598163  0.091182061 
  272000    1514.6643   -10462.272   -9992.5825    1038.0643  0.087100525  0.091004603 
  273000    1511.9443   -10461.437     -9992.59    1084.9624  0.092421074  0.091063623 
  274000    1503.2825   -10458.742   -9992.5817    1129.2631   0.10199237  0.091500772 
  275000    1535.7209   -10468.816   -9992.5969    1174.8362  0.089605491  0.091427877 
  276000    1523.7279   -10465.112   -9992.6118    1221.7468  0.089985547  0.091374457 
  277000    1520.4689   -10464.075   -9992.5853    1266.0425  0.092229521  0.091404995 
  278000    1536.1386   -10468.927   -9992.5777    1313.1746  0.085455761  0.091199849 
  279000     1532.676   -10467.879   -9992.6036     1358.896  0.084214382     0.090967 
  280000    1474.1462   -10449.688    -9992.563    1404.0964  0.085101009  0.090777775 
  281000    1514.3117   -10462.169   -9992.5883    1452.8197  0.087570122  0.090677536 
  282000    1480.4217   -10451.666   -9992.5945    1498.8337   0.09438148  0.090789776 
  283000    1547.4918   -10472.484   -9992.6148     1545.394  0.078729923  0.090435075 
  284000      1517.23   -10463.057   -9992.5711    1590.9332  0.087631925  0.090354985 
  285000    1490.1702   -10454.669   -9992.5745     1639.708   0.08795171  0.090288227 
  286000    1504.4156   -10459.088    -9992.576    1682.9591  0.089953246  0.090279174 
  287000    1523.9451   -10465.134   -9992.5659    1729.8473   0.08625876  0.090173373 
  288000    1503.4033   -10458.772   -9992.5745    1778.4286  0.090454534  0.090180583 
  289000    1482.7619   -10452.361   -9992.5642    1827.8989  0.088854026  0.090147419 
  290000    1552.3085   -10473.954   -9992.5908    1873.7092  0.090597513  0.090158397 
  291000    1515.2014   -10462.423   -9992.5663    1918.8447  0.093120511  0.090228923 
  292000    1513.9834   -10462.042   -9992.5632    1965.7263  0.092975602  0.090292799 
  293000    1502.0176   -10458.328   -9992.5598    2010.7621  0.097892845  0.090465528 
  294000    1558.7068   -10475.913   -9992.5658    2057.4852  0.090966551  0.090476662 
  295000    1501.2551   -10458.082   -9992.5502    2105.1161  0.087908046  0.090420822 
  296000    1523.4568   -10464.968   -9992.5513    2151.1211   0.08576806  0.090321827 
  297000    1517.5352   -10463.142   -9992.5614    2200.4046  0.093427072   0.09038652 
  298000    1518.7155   -10463.531    -9992.585    2245.3528  0.094364381  0.090467701 
  299000    1498.7929   -10457.313   -9992.5452    2293.6001  0.092466173   0.09050767 
  300000    1514.4981   -10462.199   -9992.5608    2339.7347  0.096177882  0.090618851 
  301000    1520.5025   -10464.065   -9992.5651    2386.4651  0.094778202  0.090698838 
  302000    1508.9002   -10460.461   -9992.5584    2430.5588  0.093579715  0.090753194 
  303000    1514.2345   -10462.134   -9992.5771    2475.6787  0.094033056  0.090813933 
  304000    1531.9826    -10467.62   -9992.5598    2523.7543  0.096814672  0.090923037 
  305000    1511.0706   -10461.132   -9992.5563    2568.9789  0.099507525  0.091076331 
  306000    1530.7053   -10467.211   -9992.5467    2615.0987  0.094319679  0.091133232 
  307000    1488.9596   -10454.268   -9992.5485    2660.3938  0.097900408  0.091249908 
  308000    1498.3611   -10457.181   -9992.5462    2706.9329  0.093463117   0.09128742 
  309000    1484.8958   -10453.004    -9992.545    2752.3567  0.098679341  0.091410618 
  310000     1501.714   -10458.222   -9992.5476    2798.7238   0.08821446  0.091358222 
  311000    1508.8256   -10460.401    -9992.522    2843.6303   0.08878542  0.091316725 
  312000    1533.1396   -10467.957    -9992.538    2889.9827  0.086840423  0.091245673 
  313000    1505.5018   -10459.392   -9992.5429    2938.0879  0.091528208  0.091250088 
  314000    1507.2909   -10459.943   -9992.5399    2983.6529   0.08563971  0.091163774 
  315000    1518.4592   -10463.393   -9992.5258    3031.1182  0.087703044  0.091111339 
  316000    1499.4751   -10457.517   -9992.5367    3075.5783  0.092473875  0.091131675 
  317000    1527.4512   -10466.183   -9992.5275    3124.9944  0.088143555  0.091087732 
  318000    1519.1679   -10463.594   -9992.5072    3172.1876  0.082161477  0.090958366 
  319000    1492.1774   -10455.233   -9992.5165    3217.8548  0.082940485  0.090843825 
  320000    1508.6525    -10460.37   -9992.5444    3265.7014  0.088096434  0.090805129 
  321000    1515.5015   -10462.463   -9992.5133    3311.5609  0.088073364  0.090767188 
  322000    1519.7237   -10463.789   -9992.5302    3357.9197   0.10007722  0.090894723 
  323000    1518.4713   -10463.403   -9992.5328    3401.7976    0.1003264  0.091022178 
  324000    1517.5283   -10463.101   -9992.5225    3448.9798  0.085078136  0.090942924 
  325000    1548.3055   -10472.641   -9992.5187    3496.0797  0.084450049  0.090857492 
  326000    1520.7275   -10464.117    -9992.547     3545.114  0.089857785  0.090844508 
  327000    1520.7266   -10464.097   -9992.5268    3593.7362  0.086305493  0.090786316 
  328000    1508.3229   -10460.246   -9992.5226    3642.0524  0.085468255  0.090718999 
  329000    1560.7096   -10476.505   -9992.5365    3687.3204   0.08991755   0.09070898 
  330000    1502.2272   -10458.336   -9992.5027    3734.3271  0.089397347  0.090692787 
  331000    1498.6631   -10457.237   -9992.5092    3779.2463  0.088453073  0.090665474 
  332000    1514.9417   -10462.297   -9992.5209    3826.8076  0.089940989  0.090656745 
  333000     1493.589   -10455.647   -9992.4928    3875.8859   0.10160267  0.090787054 
  334000     1516.936   -10462.888   -9992.4933    3922.5803   0.10030074   0.09089898 
  335000    1472.2065   -10449.008   -9992.4838     3968.255  0.092865933  0.090921851 
  336000     1507.133   -10459.862   -9992.5078    4015.7686  0.085244209  0.090856591 
  337000    1470.2874   -10448.423   -9992.4939    4062.9861  0.097948406   0.09093718 
  338000    1526.1123   -10465.725   -9992.4847    4109.5265  0.087957805  0.090903704 
  339000    1512.6117   -10461.543   -9992.4895    4156.0387   0.09185367  0.090914259 
  340000    1531.7654   -10467.476   -9992.4827    4203.8933  0.082875404   0.09082592 
  341000    1506.4313   -10459.628    -9992.491    4249.8361  0.092892625  0.090848384 
  342000    1522.8108    -10464.69   -9992.4743    4294.7689  0.091476739   0.09085514 
  343000    1527.3091   -10466.064   -9992.4534    4343.2236  0.088726326  0.090832493 
  344000    1538.7811   -10469.645   -9992.4761    4388.7047  0.093694914  0.090862624 
  345000    1519.9664   -10463.811   -9992.4764    4437.3343  0.080548951   0.09075519 
  346000    1488.1794   -10453.942   -9992.4653    4484.9404  0.085813043   0.09070424 
  347000    1491.8082    -10455.07   -9992.4679    4534.0141  0.079769308  0.090592659 
  348000    1495.8692   -10456.314   -9992.4527    4584.2283   0.08151399  0.090500955 
  349000    1524.4606   -10465.188   -9992.4598    4634.1666  0.083532581  0.090431272 
  350000    1518.9899   -10463.485    -9992.454    4680.8732  0.085101719  0.090378504 
  351000    1512.1614   -10461.348   -9992.4338    4730.9893   0.09630289  0.090436586 
  352000    1495.6203   -10456.202   -9992.4176    4779.5312  0.093493444  0.090466264 
  353000    1524.1183   -10465.072   -9992.4507    4823.3622  0.098500099  0.090543513 
  354000    1502.1618   -10458.233   -9992.4204    4871.5504  0.094062378  0.090577026 
  355000    1494.8159   -10455.919   -9992.3839    4917.7233  0.083272869  0.090508119 
  356000    1472.1889   -10448.926   -9992.4072     4967.853  0.091191087  0.090514501 
  357000     1522.427   -10464.526   -9992.4292     5016.524  0.087716038   0.09048859 
  358000    1534.0495   -10468.138   -9992.4365    5063.5754  0.093161326   0.09051311 
  359000    1481.7065   -10451.886   -9992.4158    5109.7512   0.10270484  0.090623944 
  360000    1532.3961   -10467.595   -9992.4062    5155.4953  0.087576956  0.090596494 
  361000    1495.9249   -10456.277   -9992.3984    5203.4576  0.086582135  0.090560651 
  362000    1535.5002   -10468.565   -9992.4144     5251.695  0.093839387  0.090589667 
  363000    1509.6797   -10460.545   -9992.4007    5298.6187  0.090622834  0.090589958 
  364000    1513.8311   -10461.845   -9992.4132     5348.287  0.096362815  0.090640156 
  365000    1511.6099   -10461.159   -9992.4164    5395.6073  0.088833118  0.090624578 
  366000     1510.372   -10460.774   -9992.4155     5443.641  0.086621616  0.090590365 
  367000     1515.844    -10462.48   -9992.4247    5491.2357  0.092960955  0.090610455 
  368000    1525.6985   -10465.549   -9992.4372     5539.365  0.090372871  0.090608458 
  369000    1469.6714   -10448.144   -9992.4057    5588.2569  0.089103017  0.090595913 
  370000    1505.7041   -10459.345   -9992.4333    5635.7695  0.095744803  0.090638466 
  371000    1527.4046   -10466.075   -9992.4345    5683.5056  0.095180727  0.090675698 
  372000    1510.2629   -10460.761   -9992.4356      5732.59  0.092886525  0.090693672 
  373000    1480.8819    -10451.63   -9992.4157    5780.7091  0.089691252  0.090685588 
  374000    1506.5978   -10459.614   -9992.4257    5827.9341  0.089942046  0.090679639 
  375000    1502.7002   -10458.389   -9992.4087    5878.7172  0.082977764  0.090618513 
  376000    1487.0111   -10453.523   -9992.4086    5924.5734  0.096654577  0.090666041 
  377000    1493.9363   -10455.662   -9992.3998    5973.6789  0.091165967  0.090669947 
  378000    1522.1098   -10464.395   -9992.3958    6021.1632  0.083430082  0.090613824 
  379000    1515.7024   -10462.413   -9992.4012      6071.09  0.086631785  0.090583193 
  380000    1540.3321   -10470.049   -9992.3994    6119.0821  0.083786381  0.090531309 
  381000    1513.3535   -10461.693   -9992.4099    6166.0913  0.091252857  0.090536775 
  382000    1512.9104    -10461.53   -9992.3842    6213.6043   0.10382267  0.090636669 
  383000    1530.2921   -10466.929   -9992.3926    6260.6303  0.099733078  0.090704553 
  384000    1536.4758   -10468.835   -9992.3814    6308.1027  0.096190011  0.090745186 
  385000    1516.2561   -10462.601    -9992.417    6354.7259   0.10390297  0.090841934 
  386000     1500.574   -10457.705   -9992.3844    6399.6917  0.098738224  0.090899571 
  387000    1532.5603   -10467.635   -9992.3954    6445.0534  0.098278727  0.090953044 
  388000    1500.9831   -10457.839   -9992.3914    6493.5298  0.091302705  0.090955559 
  389000    1520.7532   -10463.966   -9992.3877    6540.1076  0.083704694  0.090903767 
  390000    1528.0059    -10466.21   -9992.3828    6588.8192    0.0895764  0.090894353 
  391000    1526.8975   -10465.879   -9992.3955    6636.0573  0.091736902  0.090900287 
  392000    1493.3571   -10455.438   -9992.3558    6682.4662  0.093762525  0.090920302 
  393000    1494.4222   -10455.777   -9992.3644    6731.2401  0.091152773  0.090921917 
  394000    1509.7841   -10460.544   -9992.3673    6779.2919  0.088269944  0.090903627 
  395000    1526.7224   -10465.788    -9992.359    6824.7729  0.092691712  0.090915874 
  396000    1510.3858   -10460.714   -9992.3507    6870.9368  0.087118496  0.090890042 
  397000    1506.0775   -10459.382   -9992.3546    6921.0373  0.091605888  0.090894879 
  398000    1500.5682   -10457.686   -9992.3667    6965.1799  0.095617436  0.090926574 
  399000    1533.5097   -10467.897   -9992.3636    7014.2164  0.088872839  0.090912882 
  400000    1524.8546   -10465.201   -9992.3512      7060.21   0.08796049   0.09089333 
  401000    1477.2998   -10450.437   -9992.3331    7105.4603  0.092776156  0.090905717 
  402000    1524.7678   -10465.173   -9992.3498    7151.9937  0.095069321   0.09093293 
  403000     1530.824   -10467.046   -9992.3449    7200.7343     0.091271  0.090935125 
  404000    1538.8628   -10469.526   -9992.3326    7246.6608  0.095201183  0.090962648 
  405000    1514.6268   -10462.005   -9992.3266    7296.8168  0.094332114  0.090984247 
  406000    1541.1706   -10470.257   -9992.3474    7344.2922  0.084719982  0.090944348 
  407000    1494.3143   -10455.713   -9992.3334    7395.4851  0.090607547  0.090942216 
  408000    1528.3898   -10466.273   -9992.3273    7441.1638  0.099781057  0.090997806 
  409000    1514.9253     -10462.1   -9992.3287    7488.9749  0.097132356  0.091036147 
  410000    1558.9707   -10475.758   -9992.3287    7533.4524  0.089952947  0.091029419 
  411000    1525.9129   -10465.499   -9992.3209    7581.8215  0.092469231  0.091038307 
  412000    1513.7579   -10461.735   -9992.3265     7627.713  0.093689614  0.091054573 
  413000    1521.8888   -10464.236   -9992.3061    7674.5897  0.090076243  0.091048607 
  414000    1485.6675       -10453   -9992.3018    7722.3986  0.096639646  0.091082492 
  415000    1504.7198   -10458.922   -9992.3157    7771.6162  0.089734194   0.09107437 
  416000    1505.4547   -10459.148   -9992.3143    7819.0244  0.097172396  0.091110885 
  417000     1517.618   -10462.905   -9992.2994    7864.4893  0.098371603  0.091154104 
  418000    1487.6372   -10453.615   -9992.3062    7911.3342  0.094803694  0.091175699 
  419000    1488.7854   -10453.968   -9992.3027    7957.5992  0.096223611  0.091205392 
  420000    1492.4632   -10455.121   -9992.3156    8006.4287  0.092843441  0.091214972 
  421000    1500.5713   -10457.615   -9992.2954    8052.6573  0.086115432  0.091185323 
  422000    1525.4322   -10465.323   -9992.2942    8100.8105  0.086230703  0.091156684 
  423000    1512.6385   -10461.349   -9992.2869    8146.4748   0.08680738  0.091131688 
  424000    1473.8468   -10449.304    -9992.271    8193.2438   0.08670859  0.091106413 
  425000    1507.8078    -10459.87   -9992.3063    8241.6393  0.088322547  0.091090596 
  426000    1525.8363   -10465.431   -9992.2763    8288.3448  0.099907677   0.09114041 
  427000     1510.653   -10460.719   -9992.2727    8332.9633  0.097782188  0.091177723 
  428000    1510.9772    -10460.82   -9992.2737    8380.1912  0.094037066  0.091193697 
  429000    1481.3208   -10451.621   -9992.2708    8426.5753  0.097613226  0.091229361 
  430000    1525.2374   -10465.234   -9992.2658    8471.8751  0.088404522  0.091213754 
  431000    1499.1414    -10457.14   -9992.2633    8517.2716  0.091953075  0.091217816 
  432000    1524.5882   -10465.042   -9992.2747    8564.5155  0.094550812  0.091236029 
  433000    1521.5383   -10464.098   -9992.2761    8612.9047  0.098081718  0.091273234 
  434000    1511.2611   -10460.883   -9992.2482    8657.9583  0.098291513  0.091311171 
  435000    1506.9901   -10459.577   -9992.2669    8705.1291  0.092688153  0.091318574 
  436000     1511.146   -10460.855   -9992.2565    8750.7223  0.085884561  0.091289515 
  437000    1477.4819   -10450.392   -9992.2317    8798.1247   0.08658255  0.091264478 
  438000    1501.3006   -10457.787   -9992.2412    8845.2003  0.091636032  0.091266444 
  439000    1534.0187   -10467.932     -9992.24    8892.8354  0.081184027  0.091213379 
  440000    1499.6701    -10457.27   -9992.2292    8942.2798  0.078851941  0.091148659 
  441000    1508.1709    -10459.89   -9992.2133    8987.9877  0.090152915  0.091143473 
  442000    1513.7236   -10461.606   -9992.2082    9037.1418  0.089782928  0.091136423 
  443000    1483.1056   -10452.113   -9992.2095    9085.5613  0.090943767   0.09113543 
  444000    1540.4538   -10469.922   -9992.2347    9132.8024   0.09052313   0.09113229 
  445000     1522.746   -10464.418   -9992.2219    9177.5748  0.091188599  0.091132578 
  446000    1533.0699   -10467.613   -9992.2158    9224.8346  0.093728878  0.091145757 
  447000     1506.242   -10459.269   -9992.1903    9273.5907  0.086871081  0.091124168 
  448000    1527.7968   -10465.956   -9992.1938    9321.3947  0.087984248  0.091108389 
  449000    1507.8048   -10459.787   -9992.2243    9370.0139  0.090256484  0.091104129 
  450000    1512.0252   -10461.083   -9992.2114    9418.7646  0.085728991  0.091077388 
Loop time of 35956.6 on 1 procs for 200000 steps with 2400 atoms

Performance: 0.481 ns/day, 49.940 hours/ns, 5.562 timesteps/s
98.0% CPU use with 1 MPI tasks x 1 OpenMP threads

MPI task timing breakdown:
Section |  min time  |  avg time  |  max time  |%varavg| %total
---------------------------------------------------------------
Pair    | 35794      | 35794      | 35794      |   0.0 | 99.55
Neigh   | 137.97     | 137.97     | 137.97     |   0.0 |  0.38
Comm    | 11.614     | 11.614     | 11.614     |   0.0 |  0.03
Output  | 0.0053281  | 0.0053281  | 0.0053281  |   0.0 |  0.00
Modify  | 9.882      | 9.882      | 9.882      |   0.0 |  0.03
Other   |            | 3.524      |            |       |  0.01

Nlocal:        2400.00 ave        2400 max        2400 min
Histogram: 1 0 0 0 0 0 0 0 0 0
Nghost:        4766.00 ave        4766 max        4766 min
Histogram: 1 0 0 0 0 0 0 0 0 0
Neighs:         0.00000 ave           0 max           0 min
Histogram: 1 0 0 0 0 0 0 0 0 0
FullNghs:      229734.0 ave      229734 max      229734 min
Histogram: 1 0 0 0 0 0 0 0 0 0

Total # of neighbors = 229734
Ave neighs/atom = 95.722500
Neighbor list builds = 10293
Dangerous builds = 0
Running average thermal conductivity: 7.54
System init for write_data ...
Total wall time: 22:32:28
