LAMMPS data file via write_data, version 29 Sep 2021, timestep = 450000

2400 atoms
3 atom types

0 22.86253088874121 xlo xhi
0 34.293796333111814 ylo yhi
0 45.72506177748242 zlo zhi

Masses

1 18.998403163
2 6.938
3 22.989769

Atoms # atomic

612 1 0.7800469405892582 2.4086567484347334 1.3041661476801918 -6 0 2
1281 3 1.7707123494250152 2.884587210290574 2.986006705750305 0 1 0
2270 2 0.5662988576687797 0.5999895152605225 0.44644057559902334 2 3 1
1861 2 2.9699917080049048 1.002059286753763 44.3059624817983 0 1 0
2159 2 5.581286147891097 2.0650360483416788 0.31590879800337485 -1 0 2
505 1 5.414535924755104 3.1532609522313684 1.3964949880411544 0 0 0
1669 2 7.033226570094004 2.9349352375027453 2.1395505655610063 0 -2 0
1302 1 7.266237612321047 1.3350351963245013 1.1247902722194936 1 -1 1
1832 1 5.465744100667863 2.3382288613429942 43.2076010608173 0 1 2
1029 1 8.863595562637613 3.6176670486785767 1.9158791629307665 0 2 0
1361 2 9.803146145862833 2.5354133255129088 0.9960087219840884 0 -1 0
1387 3 10.88221188006686 3.998980391435377 2.8469834823894704 -3 2 0
99 3 10.545906011222012 3.5510203457505454 5.4769030361433115 -2 -1 1
405 1 11.478456154817435 2.988009648637232 0.40760992123342227 -3 1 -2
1289 3 14.247436806928322 2.626158582028469 4.128343752264422 4 1 -1
729 1 15.201786851906297 4.678101303314183 0.43540897150969216 0 0 0
987 3 15.549331110084044 33.69379843462798 2.7006424081977896 1 -3 0
629 1 14.213397199791974 1.145126814903178 2.5771373757208473 0 0 0
1679 3 15.855071845285215 2.4947451889961854 1.0650294966466378 2 1 0
1159 2 17.17600863093092 4.940617894902123 3.585165526067727 -1 2 1
2340 1 17.079238451400418 0.6991001873043748 2.1301664310541213 -2 -1 2
1254 2 21.93360764121302 2.032935263114438 2.221194924629855 0 -1 0
1607 1 22.01390421756155 3.5475311836609587 3.341480608939742 2 -1 0
2095 3 18.55854448656371 2.3950927885972297 1.9426540259987237 0 3 1
1279 3 1.3000929463839002 34.19699294920313 4.001783235091958 2 0 0
325 1 2.4747811290695876 5.085799401086039 1.240800029716829 -2 0 1
59 2 2.062453297372752 5.983221859005345 3.1704962694391425 -1 0 0
1347 1 0.412299533257529 7.209146858570394 3.4699431456645713 -1 -3 -1
872 2 1.2980019676687522 4.082095735918079 0.8782195458869794 0 0 1
2283 3 3.341958456629613 4.755165495304585 43.64093634168641 7 -1 0
2319 1 6.4054414602210334 5.858031621535914 4.118439490778984 0 1 2
297 3 5.377992261639056 7.94042481872445 3.973744020580998 0 0 1
1923 1 5.006628581612352 6.459045848136874 0.36731003174086435 0 0 0
583 3 8.163541070238047 5.216802050298945 0.6535567403916708 1 1 0
305 1 9.742759108987844 6.197741190716271 2.3240215537496183 0 0 1
519 1 12.679315084356178 6.2682615442231375 1.2623448184215682 0 2 -1
952 2 11.654502609180046 6.277570811562582 45.52050708200906 1 0 -1
1819 1 15.782985673377137 7.1263535453443545 1.7555196346223754 0 0 0
169 2 14.28279372527512 6.655830327716253 0.7309707524120483 2 2 0
1238 1 14.918358691021488 3.8958570658289964 2.845668052412879 -1 1 0
473 2 16.651595967776192 5.528414808277755 1.1108449287678204 -1 0 1
2 1 17.935348151677893 4.445973421000479 1.728634151251322 -1 1 1
703 1 20.770782050705115 7.199205904491909 45.4344628634024 1 1 2
2065 2 21.751686761395778 4.181979002566838 1.5786998147173246 -4 0 1
638 1 3.731629359364161 6.690244014223859 3.2103630042096 2 0 1
2383 3 3.905910396141845 10.400924148429874 1.0651732761314785 2 0 1
372 2 21.479764932141833 8.706674458052408 3.90508276933588 -4 2 1
310 1 1.0522815497986258 9.008374168154894 0.45169098938013175 0 1 1
596 3 2.491751555668298 7.322804031580954 0.5418000076892959 1 0 0
1512 1 6.008439082299638 10.518361958658847 0.76524967353662 -2 1 1
419 1 4.0173741502783775 9.341167813997746 2.910142539003634 1 2 0
637 1 7.731191265243533 8.68047996579315 3.1998123020123503 1 1 -1
1785 3 5.777881272143622 8.470880208538867 0.5851130735411663 0 3 2
1977 3 9.76106609510793 7.839818541606823 0.8186093799892784 3 1 1
2018 1 10.008159083103441 10.457574122986147 2.140172221399509 0 -1 3
2228 1 11.978566665633954 8.709335010494907 0.7706159265898062 -1 3 0
16 1 11.54731503194091 12.407549471570682 0.9627449361219277 2 -2 0
1440 1 13.558582405864335 7.825158907515788 4.482633198820522 -2 -1 0
692 3 13.996998667439968 8.991222716301554 2.5019877392413745 0 1 1
1891 3 14.353834314786818 6.208402434585379 3.168429316602261 2 -1 1
481 3 17.260599450079585 8.799819664352633 1.88616071250488 1 0 1
616 1 14.83972997871514 12.079345389130424 3.601755484490439 1 0 0
1237 1 20.963411434836146 8.92049040175238 1.9601613385891596 -2 1 0
1951 2 19.924206785977347 7.199415322057188 1.657226735723673 -2 -1 1
1023 1 18.60863499430115 8.210846557466212 3.3084241371105034 0 2 -1
601 1 2.6945530972333263 11.615161257532874 45.148424632537875 0 1 -1
1655 2 2.5873162497702937 13.218036771763554 1.10810080831466 -5 1 2
559 2 0.30428143670554786 11.260899572174063 1.0967978294899434 1 1 1
316 1 0.23013980449941251 13.223219938381247 44.96522998936295 -1 2 -1
1476 3 0.9032008063415851 15.321044956715626 1.1785288417979558 -1 2 2
1904 1 6.370359690855775 13.416420815120984 3.1014289707258826 1 -1 0
1383 3 7.376570391220667 11.215120511853174 2.317862946980208 1 -2 -1
1129 1 3.2274164270082233 14.903653053811952 0.2716443175952957 2 1 0
2187 3 9.61015530449686 12.815085290973855 2.310864944541699 -1 -2 1
2072 2 10.930584559182027 13.53593403061621 45.483871257131625 -1 -1 0
1960 2 10.718136219362378 16.109004650221493 44.95774860311253 -2 -1 2
1629 1 10.242337077004535 14.813476716707905 0.8505596527947469 1 0 1
2066 2 11.834351251215729 11.188115284897872 2.2583479721496587 -5 1 2
2320 1 13.947751090863026 15.289792259272742 2.588854164122634 -1 0 0
1856 2 13.525558600381489 14.65717948184103 0.7631301209214846 -2 -1 2
867 2 12.911597561459388 15.679224538079854 4.137556657623722 -2 1 0
1889 3 15.478724831423552 17.090155550938224 2.7922428815427556 -2 1 1
326 1 15.349828423551882 13.575102536460111 0.4595555810420604 -2 3 0
1033 1 17.953389768558225 12.052903511007434 2.0035624071793547 -5 0 0
1757 2 15.331133802695502 13.636608751066913 2.4057676478695096 0 0 1
524 1 1.4445834649748117 12.994803644933521 2.341473826197118 0 1 -1
380 3 19.927053927309963 10.614881950829194 1.1708137304826067 1 0 1
290 3 21.864948140251702 13.99687011259103 0.48307702078080056 1 1 -1
1816 1 19.64325982556636 16.307544323032804 2.7024805628551216 0 -1 1
2378 3 1.5854980809276198 18.518892124511332 0.0718969223861561 4 4 1
1316 1 2.4020620513477255 17.30952267270562 1.7310681503663992 1 -2 1
179 3 8.356638736317143 14.831181831786228 0.10709412237802206 3 0 1
1304 1 5.313718651992293 17.600412043477117 2.652458848629417 2 -2 1
779 3 3.6388646982913646 18.735547520683152 2.8729537539400414 0 -2 0
2301 1 3.6278568040276205 20.017263730674834 0.7287855505588545 3 0 1
1184 3 4.350672755676405 16.532023106911215 0.6566144511225801 2 -1 1
133 1 8.089328625123342 16.952847865366632 2.0509454277782018 -1 -2 1
66 2 6.588633015457561 17.67926988662834 1.4178409114627195 -3 0 1
376 3 9.702271958379168 17.52469060395402 3.775596240651057 -1 1 -1
5 1 10.173168646777839 17.856095872990604 44.73102884747187 -2 -1 0
1474 2 10.834283700383143 15.432002319719063 2.235194117726909 3 0 2
625 1 9.826023419962183 14.973755020052852 3.4712797163027154 3 -1 0
1459 2 11.603834364342687 22.125572225553263 0.48770890854661275 2 1 -1
1326 1 11.528896160440082 16.991599377917943 2.825120401497436 -1 -1 0
1486 3 13.077472123459494 18.457956631888408 4.7139048378980055 0 -1 2
501 1 11.325065402788857 17.30344651492875 5.620238566360337 3 0 0
1116 1 17.252657772940704 18.44772411704378 2.567446659053641 -4 0 0
1677 3 16.61347130964284 15.535489135199208 45.32682073982068 0 3 0
1471 2 18.307250622877426 17.266538581839136 3.4763619512967576 -7 0 1
50 1 20.393498689730045 18.462962454987878 5.003631209003516 -4 0 -2
284 3 21.194670392469703 16.838554999307544 4.039266773307542 -3 0 0
613 1 18.780307069708897 15.260459128130279 45.13392546582843 -2 -1 -3
2117 1 22.495801147584256 15.944541512363692 45.4252997489266 2 0 0
470 2 19.531793391227488 16.802372754910174 0.8886127439682945 2 0 -1
530 1 22.521335821209103 17.761743454684005 1.6401598848268595 -2 1 0
803 1 0.9714296578547911 20.976048268842334 1.483118522034323 4 -2 1
971 2 2.782367392129295 21.64017013056335 1.07488557302406 2 0 1
1183 3 0.2834130268659286 21.983214259740137 44.589069254883164 1 -1 -1
2191 3 2.0758843321807925 21.540081155575308 3.462867116545084 1 -3 -1
2217 1 3.8848009791939364 22.4434971671158 2.3141223412868714 -2 -1 1
1103 1 7.221801482493293 19.424946145150578 1.2389534163754872 2 0 1
24 1 7.0188057618579975 22.30198818058666 1.554929385362855 -2 1 1
777 3 5.840993719818537 21.135812458737878 0.10815442122663678 -2 0 0
1011 1 9.575822570477765 21.080374807122684 0.6115441052680798 -1 0 0
2056 2 8.311475021540273 20.744105599198313 1.808810606808883 -2 0 1
1024 1 9.80989026974215 24.08797141016852 0.07027163665952749 1 0 0
160 2 9.742756046653394 21.181680093818898 4.615886855010739 -1 -1 0
1778 3 13.735335601997095 23.05789875050976 43.944495256615994 -1 0 1
280 3 14.756941356680297 21.45312986688226 1.5452144584069618 2 -2 -1
2241 1 13.837682755998864 19.577607794168085 2.9140197200000517 -1 -1 1
814 1 10.769641544152062 22.164483945678718 3.2866453201545895 -2 -2 0
888 3 18.984730149436384 21.685326751348832 2.287191857142118 3 -2 0
2106 1 16.550776606756468 21.184971230162905 2.7301390683917783 -5 -1 0
457 2 20.351936792984798 19.564130209779368 0.46991628836830684 2 -3 0
1636 1 20.849702686921614 20.10583619933351 2.033352842717111 -1 2 0
68 2 19.975078588583347 20.821204003951024 5.1321045006129395 -3 0 0
754 2 21.472381233291884 19.396508086364054 3.9776359837780593 -1 -2 0
1391 3 3.328519644072171 24.47772907166067 44.192517326182795 3 1 -1
2149 1 1.741526312416853 23.33582516401429 0.14940395260871392 0 2 0
696 3 5.655916706443235 23.473565903241894 2.6825013068323575 1 -1 1
1236 1 4.454702873984852 24.93765078044445 0.2509632105878788 -2 0 -1
843 1 6.327213921275717 24.74409745627253 4.301876519887276 0 -1 2
1233 1 6.324229550942985 22.861764050585663 44.32765825501479 -1 -1 -1
193 3 12.258734955555605 28.232531778781926 45.29285572710083 0 3 0
1756 2 9.109655023005812 23.349383678375666 1.9523434918187708 -2 0 -1
13 1 9.420127070161884 24.52321083390836 3.2268287622418175 -2 -2 1
1893 3 8.06429447170402 26.68388670873487 3.849714770062388 0 1 3
1498 3 11.073842008466528 19.987155816788725 2.3808666180171136 2 -1 0
1138 1 13.055128426458104 26.467363818626556 0.5882412511449309 -1 1 2
1591 3 14.393079493967463 26.29891340428932 2.3280713300428904 1 -3 -1
1004 1 17.570943956642445 23.061853570564573 1.1752541907350411 0 0 0
693 3 16.609323777766335 23.540541658936604 3.131955288266566 2 1 0
1343 1 17.191144474613882 26.42509009670967 2.1883663853642883 -4 -1 0
497 3 16.88053216168276 24.756826322932966 45.665039219966445 -2 0 -1
2247 1 20.603399039930714 23.68952290966088 1.8552004986685866 -1 1 -2
1198 3 20.07093082410007 26.192142142479515 2.2417715361817003 0 1 1
678 3 3.186890761884315 24.747482767272494 1.9822064113160383 -3 -1 0
545 1 2.428610744444987 31.294900838290765 2.2383591837203345 -1 0 1
929 1 2.619373266985977 27.06683286110241 2.2853870549026287 0 0 -1
1081 3 0.31278123370848027 31.886586774228633 1.239391165692365 1 -2 1
1700 3 2.727095319663035 26.837432451160826 4.734228506224192 0 -1 -2
107 1 6.478795481163537 28.34420947426422 1.1077908387164568 1 0 0
578 3 4.538094996513862 26.948969467987915 1.3512121222675015 -2 2 0
569 2 3.039162660015856 30.359312577273535 0.698726261787007 2 0 1
2199 3 7.241113049428952 30.71624831194373 1.7425381672731217 3 2 1
2032 1 10.708626688505127 28.25067183617376 2.0138836355229532 0 -1 0
1189 3 10.11567087346362 32.66756303497274 0.845839942323804 -2 0 1
551 2 15.588877901871852 29.938548837093155 2.3392495108486493 -1 -1 -2
2186 3 12.21639880817783 28.035609386401404 3.273137702634357 -1 2 1
1125 1 16.219816058541912 28.82505337259815 1.378215676398652 -1 0 0
1654 2 17.44333658776721 26.4668985966522 3.840734371284376 0 0 1
1726 1 15.623626247228577 30.236606748980673 4.3208893874026595 0 0 0
639 1 18.699433973221613 30.17330845379179 1.7094065308351727 3 0 1
1045 1 20.30933898178692 28.15429632719173 3.899803906651122 -1 1 0
1753 2 0.6691002703985196 26.80834656928567 2.4115087540990463 1 0 0
1908 1 22.056580107386754 30.101227525591966 0.2849374176021024 3 -2 0
1430 1 0.49725924130341187 28.486967852429718 3.445404419362989 0 -1 0
958 2 20.24293770197243 30.83578821014394 0.1839331094936739 2 -1 -1
1525 1 2.388591127877082 32.14823281303113 4.947394313299887 7 0 0
2222 1 0.3728344338169302 34.013065858904554 1.7404485324404726 1 -1 1
2196 3 3.01244257134743 33.16476372562485 1.1444268748654491 -3 0 0
1729 1 2.1010991428344465 31.44598152207666 45.192116572309786 -1 0 -1
1940 1 4.765500815160599 31.566495888072478 0.8253231214675527 1 1 0
826 1 4.809296389621099 0.354440484957276 0.15349551673229306 -4 2 0
477 3 6.598604227397089 33.36167336915267 1.1143082043737 0 -2 0
26 1 5.063330036581779 33.24832620320574 2.7863490201186076 -1 0 -1
822 1 11.681549276267841 30.01561976146386 4.345243193046813 0 0 -1
1414 1 9.986085705494308 0.4726805907839156 1.2361227801005785 -1 -3 1
494 3 11.922041483355851 0.222611837991944 2.845182083299367 -1 2 -1
3 1 8.395639282877424 32.362864568660285 2.202548396081178 -1 -1 0
371 2 11.215007946137733 29.570446153923537 0.7509044404058477 3 -1 1
572 2 15.269705434202848 31.42750520291786 5.96528962118125 3 0 0
1828 1 13.042926322637898 30.063982710428654 0.4569081761564239 -1 -1 0
1848 1 12.246287138293777 32.55005298677004 2.2279347797124163 4 -2 1
1097 3 17.10972605344704 30.88216545448988 0.5214305719245192 0 0 0
1321 1 18.848501947880152 32.54841654052345 4.293910280743976 3 -1 1
1939 1 16.047482360667377 32.86601037777534 5.127659097906389 1 -1 2
361 2 17.2925922165839 31.292678549352903 4.357877694801493 1 -1 0
1148 1 19.505790925644288 1.4298816715669445 3.9093179290326754 -1 0 1
2184 3 20.28349693369819 33.34803074796506 2.918081552754283 3 0 0
2350 1 20.943796162529413 31.849980490325496 1.5551426713372327 -3 0 -1
887 3 20.798597416062535 29.874293032484562 2.588949176009905 -1 1 0
430 1 1.9187852922608104 4.593937337186837 4.555672403035394 -3 3 -2
2286 3 1.1502404885844777 3.7898108274904554 6.244801140417309 -2 1 0
1494 3 4.896055798821482 0.8850013297221825 3.751873113387554 -2 -1 0
621 1 2.619159492228522 1.149240042247258 4.2508933086743665 5 1 1
1845 1 6.430821715477189 2.6528494754377903 3.8332984651521618 -2 2 0
1452 2 7.493373332459318 2.6600045718349836 5.170675649003506 1 2 1
1170 2 12.982783897874155 1.9705460407273956 6.386544690522075 1 0 0
1131 1 8.926123256180478 4.439973284891411 6.287359513457411 -1 2 1
985 3 6.886204598890904 34.02447117726024 6.721907565013691 1 -3 0
238 1 15.912476243792499 1.599110798628499 4.898365463107122 2 1 1
72 2 13.193260991194876 4.747814363258177 6.72183165086209 -3 -1 1
1308 1 12.067028022592146 2.4292149142821975 4.424528033203651 0 -1 3
385 3 12.398517850013373 33.61719706734175 6.685304312587798 -3 1 -1
1912 1 14.10245497603918 0.6728256365634214 7.045005802462081 1 0 1
2213 1 17.05115507208901 4.031743923563473 7.971455546397049 0 1 1
2173 2 15.693335704188192 0.042184671248894946 6.411400150436804 2 1 1
1369 2 20.08103150806749 3.0205513562391446 4.490639155470015 -2 -1 0
513 1 19.623484720818205 1.7742633805053052 7.868755876715039 -1 0 -2
313 1 21.222702879436245 3.420991229673133 5.840184274231633 -1 0 0
838 1 18.646675086525093 4.410521659679665 4.560567925158143 -1 -1 -1
356 2 21.924570464810518 5.74011108027181 3.809575302264535 0 1 0
2083 3 22.68846598572238 5.72022654720777 8.11422134885908 -5 2 0
939 1 4.327353676007297 7.998263751427147 5.692999103294992 2 1 0
117 1 1.633431834872033 8.396918488097395 6.048074950292363 -1 0 1
917 1 1.863448742040124 5.257188521529622 7.323497691937451 3 1 0
1739 1 7.143471079877406 7.554546225059033 6.140472255793175 2 3 0
493 3 4.855014699651029 5.193006938083073 2.4533268448127004 -1 -1 1
1458 2 6.507815364103346 5.8915105725575385 6.0743257322594815 1 -2 1
1596 3 8.324066982665604 6.7897723638761835 3.9357849137167635 1 -2 0
1980 3 11.670588741912246 6.976760709914669 2.9454226045966005 -1 0 1
909 1 10.311872176723085 7.910208794214179 5.145430697376737 3 1 -1
1683 3 16.25792444521058 3.6092237295390825 5.373039437317607 -1 0 1
2209 1 11.946082397065993 5.144222516300247 4.205037700551074 1 0 2
1132 1 14.363973997747431 3.324167037028685 6.539622565687247 1 1 1
2005 1 14.26251295416556 5.802917563538885 8.191550967467377 1 0 1
2172 2 16.293790795300605 5.69330107095381 7.383540157981378 1 1 1
2116 1 16.25765861535693 5.898500649298868 4.567468367620759 -2 1 1
1064 2 17.329691452349024 8.078581320853472 4.485368694989953 -4 1 0
1337 1 21.009445809566618 5.738092779782018 2.2234081814614752 0 -2 0
1118 1 21.327303853685518 6.830568767463908 5.3856549055726815 -1 0 -1
82 3 19.150458509019657 6.3204986405141 4.247431270014931 1 0 0
1561 2 20.85106330321768 2.676405182671476 7.366522595116041 -3 0 1
883 3 2.0218163079612714 8.623559553151317 3.656261815195108 3 -2 -1
851 2 4.627879658431407 11.97171832132447 8.259526377367312 -1 2 1
1140 1 0.025111430257174768 10.065670427221061 3.7992294899935763 0 -2 1
56 2 22.781002406873046 9.291387864412522 5.705451851614746 1 -2 0
2060 2 4.3564598965836865 10.897523965886693 4.153172192428552 -2 1 1
1672 2 7.216153077189615 9.483126398747059 5.288963689156826 3 0 1
733 1 5.997733146961737 10.53776721165725 4.7794519160465745 3 -1 2
2306 1 2.944385837583022 11.266781721854334 5.34926742223757 -3 -1 2
80 3 9.109502422946035 11.788601973628676 6.855719270580832 1 0 1
1099 3 9.909085972163151 9.485696183806839 3.918230796962814 4 0 0
630 1 8.726273469220642 10.125041461499302 5.714917875390269 -2 -1 0
833 1 12.845151153566547 10.273513511654595 3.4795645270842193 3 1 0
642 1 10.132469901317211 12.544424958545495 8.170583552901327 1 2 0
1975 2 14.893943546268154 9.272817150615722 5.268113135834392 1 -1 0
1248 1 12.343227690420894 8.839357519451708 7.920174732512702 0 2 -1
1565 2 13.942548324947651 7.432155399226211 7.276651755035583 -1 2 2
1035 1 13.841478897559842 10.570937451478835 6.290082834131478 0 3 -2
1409 1 15.970826697282792 9.222934520736613 3.517177836536834 -1 4 1
2068 2 16.308809721761104 10.980153166772633 4.31219697586863 -1 0 1
465 2 17.206778726549025 8.495867843735656 7.724138892206913 0 3 0
714 1 17.011878886094465 10.255560307297335 6.11394757375473 4 0 -1
938 1 18.37237993537857 7.1087350620586065 6.463479503081122 0 2 2
2054 2 21.98366624942368 11.773708887543368 3.6435469396299034 4 1 0
279 3 19.071190931195307 10.580443850622627 4.86940846026617 0 0 0
250 1 20.96684776703825 9.735015062813565 5.339925556848799 -3 -1 0
2140 1 20.016805379587208 12.426251685280883 4.188268339886169 1 1 0
2250 1 21.595414595345087 12.800655447844454 7.537896734635501 3 0 0
198 3 1.8939158209963771 12.412991238593381 4.35537553446663 1 1 1
1630 1 2.636515861060436 14.530299940836926 4.70178404941204 1 0 2
382 3 6.415971683361361 12.994772056562638 5.16254401736614 0 2 1
112 1 3.935026591617533 12.529554919279159 1.9916617813750856 0 -1 1
1439 1 11.138615973012062 12.388398163123503 3.7700210719488663 2 1 1
1617 1 8.333359498767773 14.345786882259173 5.518261133331947 -2 2 1
776 3 12.542299676013059 12.607793032196442 7.683256237638699 -1 2 1
1355 2 12.91841157822141 12.514576702338472 4.113106244009619 -2 -1 -1
1446 1 13.047357510914223 14.270568261726257 5.119346578950678 -5 -1 1
795 3 10.526676508922282 15.376981513145205 6.077429552198814 0 0 0
1986 3 18.69678726755505 14.09042301739796 3.728135320587732 -1 0 2
440 1 16.754942489206375 14.927937856061655 2.7686825254318137 -1 2 1
1735 1 17.48698753183276 13.456102764925058 6.16496068381459 -1 -1 0
2152 2 17.403604575947494 12.32300425615876 7.3776169752248855 1 1 0
451 2 19.91401618087305 14.301500304961762 8.700967519781637 -1 -1 1
2345 1 21.248343585661175 15.004874869682506 6.285717619765983 1 0 -1
171 2 20.779867052721357 13.232477567932857 5.791279000541038 -2 -1 1
1903 1 22.581423042616578 12.812430766979565 5.175766680544602 -2 0 0
1066 2 1.9829666532760035 16.551039172162206 5.0722702889427485 3 -1 -1
721 1 0.5805744592688079 18.822933552940047 4.1238352946119745 1 -2 1
2052 2 22.760756732826003 14.446733252347826 5.0018317521303555 -1 0 1
2176 3 3.8662025313671196 18.96686872754646 6.449823512136157 -3 0 1
222 1 3.6585832919734735 17.60134808986502 4.87362103721423 0 1 0
1784 3 4.581174398497184 14.547939355323328 3.4766668530434552 5 1 1
1751 2 5.339416439779415 17.484084595461358 4.571454598158124 -2 2 2
1421 1 5.845050457662038 15.674575935129413 4.975457362816351 0 1 1
901 1 5.753060824379448 18.910468705310826 5.59326506057682 2 -1 1
1821 1 8.492505807039118 17.207466055086268 5.648699844694076 0 2 2
1380 3 7.774403056087744 15.376981302009423 3.6239770107345235 2 -1 1
1299 3 10.668977848479685 18.778153663703126 6.872594647511726 -6 1 -2
1398 3 16.334271251847248 17.73499564967259 6.077674379699797 -1 1 2
1220 1 14.809837330933368 16.882320572309734 4.817012416787796 0 -1 1
2271 2 15.77377679892977 19.529943146854347 3.4668609211619805 2 -1 -1
2171 2 17.613342200665592 15.211712537086319 6.983980799293283 1 0 0
192 3 15.195436935142906 14.714048731543741 4.965663253461031 0 0 0
102 1 0.5180521904580448 16.01861794243457 3.89305784311551 1 -1 0
1905 1 1.4648316275588622 16.529855831505227 6.754003199856931 1 -1 0
70 2 0.9297488936614117 17.36741629757784 2.8322678933100174 0 -1 0
439 1 17.859541774141434 16.4423781381015 5.1466822901903155 2 0 -2
1166 2 20.50825787161569 16.380404123458142 6.74822410578866 0 -1 -1
1373 2 0.009909091290420393 19.80983605714845 2.0959009053216775 1 -1 0
2330 1 1.3313153181583353 22.2197688392782 5.546838522575443 0 1 3
579 3 6.47441343628154 20.728119913995947 4.024211761039857 -1 3 -2
650 1 3.4853991435798055 20.678331409793923 4.622385547944606 1 1 1
1082 3 3.6496023829237516 22.785792410983888 5.5679420521680765 5 1 1
1149 1 3.4624182015997373 20.294744126452535 7.948400661053221 -3 0 0
1416 1 8.934585572551336 20.10906942505705 3.3403065049323537 2 0 -2
1896 3 6.569678054060746 23.935747882585396 6.410193038376755 2 -1 0
1305 1 6.252688241245512 22.069560693996806 5.656876276891047 0 -1 2
1504 1 11.412212827795093 19.975899229528334 4.399616388800475 0 -1 0
992 3 13.394298508704948 21.288515126031804 3.9777449056000402 4 1 0
1423 1 15.932142541181625 20.58247676858242 5.0357880181032675 3 -1 1
1401 1 17.253027117212635 19.210061250315064 8.255492263442246 -3 0 1
2389 3 18.96735756465736 18.449116454872584 7.121069765325818 0 -1 1
1050 1 19.588578990222587 20.645006976163597 7.038615278470143 0 -1 0
358 2 22.316647659198566 22.223971257954958 6.358663663487117 4 4 0
1411 1 21.74032683926765 20.929463479014 5.016839145134386 -1 -4 0
930 1 22.628829126846323 20.819187244266594 7.695484935420941 -1 0 -1
1466 2 22.269881302957756 25.96188011659917 7.441327065993853 -2 0 0
1465 2 4.290341647976971 25.793435346747582 7.461285368770394 2 0 2
1204 1 1.002964909043691 24.990148719929834 3.5468482863794994 -4 -4 2
1158 2 0.6418685266173156 24.683454462425036 5.443652473852941 3 2 1
1814 1 22.027073567635863 24.111357497884146 7.978733883995843 -4 0 3
158 2 5.243885156140147 26.240251887525815 5.027696992003455 -1 0 0
2129 1 4.126544250539602 25.355050066320366 5.700671544771629 4 -1 1
10 1 6.052281677842108 27.238013838685934 6.093064641597745 2 0 0
623 1 10.636488050734817 24.353548619699254 6.829189005965848 -1 -1 2
1282 3 10.51335902169102 25.107179934068025 5.000530942214188 -2 1 1
2193 3 14.775486801217722 23.8856082420708 5.5364551101288 -1 -2 2
1239 1 14.363889570475246 23.052530092599213 2.8611267125602264 -1 -1 -1
676 3 12.220809599754617 23.761248720890062 2.7469321826978956 3 1 0
208 1 12.202101971445197 25.90639122935722 3.9089705748239587 -1 -1 -1
1978 3 17.341134796611243 21.45548134631282 5.748336331306235 0 -2 1
2138 1 18.820361801277244 22.01789857667206 4.394847335613611 -1 1 1
144 1 14.447020969376378 25.871052798292503 7.074093904583517 -2 -1 -1
560 2 20.542522648349102 23.6201855562503 3.8461270310989852 5 -1 0
1232 1 19.35114499888364 25.34155107023279 3.978744746232859 0 1 0
689 3 19.558799762276102 23.998440478763648 6.571919455771828 4 0 0
1812 1 21.22816635403191 23.289529015465327 5.465103348668095 -2 -1 1
1906 1 1.5871897385507099 25.452325356889546 7.3815292879493 -2 -4 -1
94 3 2.0655502913203487 30.014973591525028 4.472728103959376 -3 0 -1
743 1 2.4387532070749076 29.88066504858168 6.6382007274479005 1 3 1
1402 1 4.94166560515691 30.58762252912861 3.9383185562493765 1 -1 1
1795 3 5.950554364184933 28.67181728681729 4.266379721433122 1 2 1
2104 1 5.025938762608974 26.997032824194953 3.4424435363029877 -1 0 1
353 2 4.171933142799595 31.417150646888622 2.356769270199113 -2 0 0
686 3 4.380010158735905 31.208118336479362 6.189600376339987 1 -3 0
1738 1 7.791406118581547 28.857628778010337 3.5692408083754654 2 -3 0
303 1 9.509089515581639 27.472377129117557 5.225601419180799 0 -1 0
387 3 11.460530904068055 27.70612105468609 6.340132304003687 -3 -1 -1
249 1 9.064053247466356 30.186230986989788 8.125791172509283 3 -3 2
791 3 9.702976002710471 29.636502625962116 3.6630916780913845 1 0 0
1916 1 14.284116048395944 27.929767946217662 3.662637902098053 4 -2 0
2255 2 13.962044530334808 29.88079160621705 4.314941788015882 -1 -1 0
2206 1 13.628120436781069 28.348644535609814 6.721398837702283 2 3 1
711 1 16.120564896087785 25.197248442803602 4.5242615654284775 -2 -1 1
1209 1 18.140008528090735 27.669585032726452 5.315400419342535 -2 0 0
1156 2 14.74618602887217 27.131055467459994 5.729037605069505 3 -1 -1
1742 1 16.49196826145193 27.893536817826757 7.659565547704874 2 1 1
1058 2 19.805069122581614 26.773028351423523 5.143734417780366 4 2 1
1055 2 17.760460044171683 26.54999787073486 6.88349765299339 -2 1 -1
1648 1 19.92589398822664 26.24255601058579 7.045599358511576 1 -2 0
401 1 0.022583524208941604 26.497976326294133 5.613123784385109 2 0 0
52 2 22.21506971451227 28.390881345517844 4.790517143644258 -3 0 0
2175 2 0.2886157565468643 28.57618100866965 9.755033068831596 -2 -2 0
2093 3 2.9857920946664365 34.28706587726891 6.574249391500433 -2 -1 2
1200 3 8.844423625387046 34.233968053960105 3.383171549446203 1 0 1
1007 1 4.770895587980729 33.32423465036255 6.217053863265684 1 -1 2
2325 1 9.11994641137342 1.9011270036409644 4.435245947884017 2 2 0
373 2 8.330188026683594 31.63697692721215 6.452947703724429 0 0 0
2156 2 11.994371424069422 32.24196928763747 4.119308205408019 1 1 -1
87 3 15.681653123671802 32.43461653623451 10.025852714253542 -3 0 -1
210 1 12.988585478763113 31.789091933241703 5.449258367797359 -1 0 0
989 3 17.588290134719223 0.40119802315278014 4.277351862797904 5 0 -1
942 1 17.33489368703255 0.08251282163006006 6.547787373558181 4 4 1
2047 1 17.82583196828831 31.184799748570786 6.178659894697762 3 0 1
1558 2 18.048134325427608 29.294025931926555 6.055241788354091 1 0 1
1252 2 17.996449090897126 32.811612150831515 6.683421836728519 -5 -1 0
1882 3 20.363150850128697 31.383983722914657 6.230373739944874 0 -1 2
815 1 22.08257603563959 33.143929369116506 4.504044839035659 -1 1 1
736 1 21.99428147093218 29.963405288336915 5.398778763247843 -1 1 -1
550 1 3.6302634259646998 2.3014577383537613 6.916432344359081 1 0 0
2395 3 3.0893056906173664 6.664092651829452 6.489973212063153 1 0 1
1647 1 3.2593611941265173 2.6148582360086396 9.690510896273615 4 2 0
771 2 3.651227900396379 1.4641848646164513 8.316448093881755 3 -2 -2
390 3 4.487420793134219 3.5999351144755836 5.764028820259435 2 1 2
1514 1 5.203233089937332 5.248374088203936 7.0935623903324165 -2 -3 -1
1207 1 6.260997370843627 2.1634041842739284 11.286530899759025 -3 -1 1
504 1 6.864550238845382 2.0568717416445494 6.64108969883781 0 1 2
1737 1 11.050292663865186 1.6241860417415315 6.743623757446255 6 1 1
304 1 11.423592000928933 4.188834017077548 7.7780687741733985 -2 1 1
1255 2 11.323027809245163 2.21481376891117 8.594637343239853 3 0 1
2363 2 7.005271844883389 2.7971475631483402 8.254886490822253 3 2 0
2177 3 16.42087264189334 5.920511341029221 10.108327882165327 -2 2 0
1969 2 13.401355818818095 0.68950652626509 8.619743601387665 -1 -4 -1
2015 1 13.040539391400536 2.1575184252270265 9.563110069557556 0 -2 3
411 1 15.327249222321543 3.6315837387373606 10.205052893991464 0 -1 0
2361 2 15.459697685198595 2.702847781888075 8.382429369037345 -1 2 1
480 3 17.773965617540192 0.09781864787457958 8.94102768269374 0 1 1
526 1 16.125041274910206 1.3822524155109068 9.523281995071798 3 1 -1
1520 1 0.02753461370440627 0.17046264268945174 9.993979990719403 2 1 1
1352 2 0.37975937348425 33.26147145439052 8.809339576534937 2 0 0
2000 3 2.060712464409346 9.23263222075469 8.289243036138899 -3 2 2
276 3 0.6767103883398373 2.0368482611534358 9.410718891369624 0 1 -1
460 2 9.585084503134913 4.856886293879075 8.320470039510921 -2 1 1
876 3 5.235297506458193 7.945269055419383 8.061934852226619 2 -1 -1
1234 1 3.4121903160243607 7.463383464072722 9.137456649284948 2 -2 -1
588 3 9.491483395304884 8.375446925638336 7.025871430922567 0 1 -1
248 1 7.040361377113502 8.496683799171766 9.411331463133989 0 -2 0
1493 3 12.461312290511778 9.274029488898881 5.512539631990758 -3 0 2
1235 1 9.66437085093618 6.328285496052158 9.137126725038064 1 0 0
1351 2 10.091787726081407 4.488743194601316 10.999668575685558 0 1 0
1933 1 7.189494503224379 4.497350965606554 9.691248432848328 -1 1 1
2365 2 11.27059623541342 6.103716320565694 5.705782526545889 2 3 1
124 1 12.692701933431358 6.613529260643706 6.244666337137092 -1 -2 2
2198 3 19.10039701851913 8.495667269473552 9.810975412374338 1 0 3
535 1 21.01333256897513 7.354888655048811 8.444416699039852 -1 1 -1
182 3 18.26001498559268 2.6757801190345103 9.441224438487684 2 -1 -2
1275 2 20.33170083733255 7.555664593578522 6.768392957948431 -8 -1 0
2147 1 21.558511849775705 3.729110621760008 8.585998550005147 -1 0 -1