#FLiNa 100 atoms 2,1,1 ratios

100  atoms
0  bonds
0  angles
0  dihedrals
0  impropers

3  atom types
0  bond types
0  angle types
0  dihedral types
0  improper types

0.0 10.684094749475008 xlo xhi
0.0 10.684094749475008 ylo yhi
0.0 10.684094749475008 zlo zhi

Masses

1 18.998403163    # F
2 6.938           # Li
3 22.989769       # Na

Atoms # 

 1 1 7.917 10.519 1.452
2 1 -0.84 3.009 14.349
3 1 4.828 6.65 12.347
4 1 -14.312 6.589 -0.136
5 1 5.351 11.733 3.001
6 1 7.854 1.138 7.605
7 1 -5.269 -1.56 11.281
8 1 2.171 12.041 2.574
9 1 7.696 5.757 7.724
10 1 2.072 3.72 9.839
11 1 -10.961 -8.26 11.74 
12 1 3.769 20.275 3.684
13 1 -1.37 -2.733 -8.977
14 1 -1.036 5.063 10.91 
15 1 -17.07 -7.329 7.455
16 1 6.115 1.021 20.915
17 1 15.015 6.353 -1.708
18 1 -3.81 6.01 5.167
19 1 3.258 1.573 5.098
20 1 9.828 -5.313 13.802
21 1 1.418 6.303 9.799
22 1 -4.129 14.444 9.471
23 1 -10.749 10.728 18.008
24 1 23.316 -1.427 -0.124
25 1 -2.904 12.938 -8.932
26 1 7.364 2.406 4.84 
27 1 4.416 14.197 0.481
28 1 8.792 -10.304 15.693
29 1 5.901 18.561 -3.215
30 1 8.059 19.96 9.368
31 1 12.642 18.064 -8.715
32 1 2.233 5.668 7.193
33 1 -0.521 0.44 2.701
34 1 10.435 -3.027 7.761
35 1 -1.285 -7.858 9.145
36 1 17.974 -5.809 2.48 
37 1 -23.437 19.094 5.466
38 1 15.189 0.156 -2.566
39 1 11.27 -1.871 -6.564
40 1 16.612 10.483 5.332
41 1 -8.434 8.416 -4.074
42 1 1.092 2.68 -3.472
43 1 6.37 8.535 3.443
44 1 20.956 11.038 9.898
45 1 3.584 17.824 -6.241
46 1 -8.743 -6.047 12.755
47 1 -0.919 15.695 5.655
48 1 1.941 14.584 15.587
49 1 15.78 3.995 4.217
50 1 13.019 1.098 9.458
51 2 0.387 12.921 -1.234
52 2 14.721 7.547 -4.023
53 2 13.289 14.227 0.774
54 2 12.401 7.639 0.32 
55 2 2.642 14.45 17.339
56 2 6.469 -4.013 8.702
57 2 0.333 -8.555 13.319
58 2 15.42 5.985 10.683
59 2 14.2 11.405 14.356
60 2 -15.838 -0.564 3.749
61 2 8.402 -6.21 4.298
62 2 -18.145 3.009 14.579
63 2 19.763 3.847 2.106
64 2 -1.521 0.027 -2.016
65 2 22.213 4.849 10.967
66 2 1.691 -14.182 7.569
67 2 0.25 4.28 4.384
68 2 -2.017 6.048 -9.27 
69 2 16.892 -0.641 7.185
70 2 -4.19 22.085 1.731
71 2 11.872 10.693 -0.734
72 2 -3.317 -9.808 -4.809
73 2 10.158 -12.43 6.621
74 2 -10.475 17.962 13.64 
75 2 6.428 14.058 -9.831
76 2 -2.245 -15.247 17.101
77 2 4.167 18.849 2.439
78 2 12.216 22.1 -3.139
79 2 2.441 8.33 26.065
80 2 -1.262 -9.867 1.158
81 2 2.763 -5.353 8.953
82 2 16.683 13.115 14.52 
83 2 -2.784 15.529 -1.042
84 2 -6.943 1.737 7.291
85 2 7.621 -8.409 9.393
86 2 -3.733 -0.681 10.947
87 2 -4.352 7.629 1.288
88 2 8.579 1.45 3.567
89 2 16.873 -5.153 3.625
90 2 17.452 8.211 5.071
91 3 19.862 9.464 3.406
92 3 0.278 -10.584 -6.114
93 3 15.098 10.554 -0.422
94 3 20.41 -2.473 20.927
95 3 9.285 2.607 6.889
96 3 5.922 4.202 -4.146
97 3 15.273 13.242 -1.276
98 3 10.378 5.457 8.32 
99 3 1.77 -0.89 13.076
100 3 3.507 5.541 -7.549