LAMMPS (29 Sep 2021 - Update 2)
OMP_NUM_THREADS environment is not set. Defaulting to 1 thread. (src/comm.cpp:98)
  using 1 OpenMP thread(s) per MPI task
# lmp -in therm.lammps
# Muller-Plathe method via fix thermal_conductivity

# conda activate nequip_cuda10.1
# export CUDA_VISIBLE_DEVICES=2
#   lmp -in run_therm_1000
# nohup lmp -in run_therm_1000 > therm_1000_job.out #job =8154
# 1) Initialization
units metal
dimension 3
newton off on
atom_style atomic
boundary p p p



# 2) System definition
read_data	FLiNa_41_1000_100_startpoint.lammps
Reading data file ...
  orthogonal box = (0.0000000 0.0000000 0.0000000) to (10.684095 10.684095 10.684095)
  1 by 1 by 1 MPI processor grid
WARNING: Atom style in data file differs from currently defined atom style (src/read_data.cpp:516)
  reading atoms ...
  100 atoms
  read_data CPU = 0.001 seconds


# 3) Simulation settings
pair_style	nequip
pair_coeff	* * FLiNa_f_pyt10.2 F Li Na #Li F Na

# 4) NPT:
replicate 2 3 4
Replicating atoms ...
  orthogonal box = (0.0000000 0.0000000 0.0000000) to (21.368189 32.052284 42.736379)
  1 by 1 by 1 MPI processor grid
  2400 atoms
  replicate CPU = 0.001 seconds

# thermo 1
# minimize 1.00e-9 1.0e-9 1000000 10000000
# run 100


timestep .001 # picoseconds
variable Tsim equal 1000 # Kelvin
velocity all create ${Tsim} 12335
velocity all create 1000 12335

#-------------------------------------------
# 1st equilibration run
fix 1 all nvt temp ${Tsim} ${Tsim} $(100.0*dt)
fix 1 all nvt temp 1000 ${Tsim} $(100.0*dt)
fix 1 all nvt temp 1000 1000 $(100.0*dt)
fix 1 all nvt temp 1000 1000 0.10000000000000000555
thermo          100
run 50000
Neighbor list info ...
  update every 1 steps, delay 10 steps, check yes
  max neighbors/atom: 2000, page size: 100000
  master list distance cutoff = 7
  ghost atom cutoff = 7
  binsize = 3.5, bins = 7 10 13
  1 neighbor lists, perpetual/occasional/extra = 1 0 0
  (1) pair nequip, perpetual
      attributes: full, newton off
      pair build: full/bin/atomonly
      stencil: full/bin/3d
      bin: standard
Per MPI rank memory allocation (min/avg/max) = 3.989 | 3.989 | 3.989 Mbytes
Step Temp E_pair E_mol TotEng Press 
       0         1000   -11059.062            0   -10748.966    11315.912 
     100    990.86123   -11057.389            0   -10750.127    11212.498 
     200    994.79195   -11045.775            0   -10737.295    11256.978 
     300     1006.003   -11042.054            0   -10730.097    11383.841 
     400    997.27409     -11044.1            0    -10734.85    11285.066 
     500    985.21092   -11049.044            0   -10743.535     11148.56 
     600    994.12784   -11053.808            0   -10745.533    11249.463 
     700    1005.7896   -11050.236            0   -10738.346    11381.426 
     800    1013.3935   -11040.568            0    -10726.32    11467.472 
     900    1020.1893   -11045.116            0   -10728.761    11544.372 
    1000    996.37986   -11043.486            0   -10734.514    11274.947 
    1100    1011.5253   -11051.648            0   -10737.979    11446.331 
    1200    1010.5818   -11055.277            0   -10741.901    11435.655 
    1300    979.29993   -11055.792            0   -10752.116    11081.672 
    1400    989.29967   -11058.698            0   -10751.921    11194.828 
    1500    983.57841   -11043.879            0   -10738.876    11130.086 
    1600    1001.1033   -11048.438            0       -10738    11328.396 
    1700    989.04779   -11044.125            0   -10737.426    11191.977 
    1800    1020.7937   -11047.112            0   -10730.569    11551.212 
    1900    1022.4116   -11038.376            0   -10721.331    11569.519 
    2000    1018.3053   -11039.961            0   -10724.189    11523.053 
    2100    984.42995   -11044.988            0   -10739.721    11139.722 
    2200     960.1753   -11042.261            0   -10744.515    10865.259 
    2300    996.43882   -11048.389            0   -10739.398    11275.614 
    2400    1002.5468   -11041.355            0   -10730.471    11344.732 
    2500    1001.0197   -11043.101            0   -10732.689     11327.45 
    2600    1005.4861   -11050.208            0   -10738.412    11377.992 
    2700    1002.8479   -11051.415            0   -10740.437    11348.139 
    2800    998.29663    -11048.19            0   -10738.624    11296.637 
    2900    1013.6566   -11050.501            0   -10736.171    11470.449 
    3000    991.50639   -11051.723            0   -10744.261    11219.799 
    3100    1000.3435   -11062.469            0   -10752.267    11319.799 
    3200    999.92942   -11058.476            0   -10748.402    11315.113 
    3300    1001.3079   -11048.548            0   -10738.047    11330.712 
    3400    1002.3366    -11046.86            0   -10736.041    11342.352 
    3500    1011.7357   -11052.916            0   -10739.182    11448.712 
    3600    973.20206   -11045.311            0   -10743.525    11012.669 
    3700    987.66937   -11042.392            0    -10736.12    11176.379 
    3800    1010.6143   -11038.144            0   -10724.757    11436.022 
    3900    1022.8881   -11042.424            0   -10725.231    11574.911 
    4000    1000.2056   -11041.696            0   -10731.537    11318.238 
    4100    978.90185   -11041.607            0   -10738.055    11077.167 
    4200    992.33416   -11050.588            0    -10742.87    11229.166 
    4300     946.2515   -11038.226            0   -10744.798    10707.698 
    4400    993.06023   -11040.988            0   -10733.045    11237.382 
    4500    1030.1458   -11045.898            0   -10726.455    11657.039 
    4600    1003.8468   -11044.188            0     -10732.9    11359.442 
    4700    995.69228   -11048.294            0   -10739.535    11267.166 
    4800    987.54273   -11049.988            0   -10743.756    11174.946 
    4900    1012.9779   -11054.676            0   -10740.556    11462.769 
    5000    1016.0914   -11040.325            0    -10725.24        11498 
    5100    1018.6704   -11039.053            0   -10723.168    11527.185 
    5200    1017.6692   -11049.137            0   -10733.562    11515.855 
    5300    1004.8699   -11054.347            0   -10742.741    11371.019 
    5400    989.63381   -11052.221            0    -10745.34    11198.609 
    5500     1005.104    -11051.67            0   -10739.992    11373.668 
    5600    987.02069   -11035.581            0   -10729.511    11169.039 
    5700    1031.2123   -11040.191            0   -10720.418    11669.108 
    5800    1013.3951   -11041.576            0   -10727.327     11467.49 
    5900    1011.7722   -11047.704            0   -10733.959    11449.125 
    6000    1015.7822   -11051.816            0   -10736.827    11494.501 
    6100    999.97194   -11047.849            0   -10737.762    11315.594 
    6200    997.49049   -11058.215            0   -10748.898    11287.514 
    6300    975.67901    -11057.54            0   -10754.987    11040.698 
    6400    991.34737   -11054.326            0   -10746.914    11217.999 
    6500    993.39918   -11048.931            0   -10740.882    11241.217 
    6600    983.73529   -11046.071            0    -10741.02    11131.862 
    6700    1010.0482   -11054.729            0   -10741.518    11429.617 
    6800    993.05987   -11056.174            0   -10748.231    11237.378 
    6900    968.39266   -11054.648            0   -10754.355    10958.246 
    7000    996.74513   -11055.632            0   -10746.546     11279.08 
    7100    1009.7493   -11049.357            0   -10736.239    11426.234 
    7200    1013.9656   -11051.314            0   -10736.889    11473.945 
    7300    989.81989   -11050.056            0   -10743.117    11200.714 
    7400    977.64039    -11053.01            0   -10749.848    11062.892 
    7500    982.07416   -11043.943            0   -10739.407    11113.065 
    7600     1019.391   -11043.985            0   -10727.877    11535.339 
    7700    997.02858   -11039.628            0   -10730.454    11282.287 
    7800    1002.6604   -11046.856            0   -10735.936    11346.016 
    7900    988.26136   -11050.731            0   -10744.276    11183.078 
    8000    970.30132   -11052.061            0   -10751.175    10979.844 
    8100    977.67651   -11046.996            0   -10743.823    11063.301 
    8200    1012.7491   -11046.995            0   -10732.947     11460.18 
    8300     1017.383   -11050.799            0   -10735.313    11512.616 
    8400    978.05855    -11044.76            0   -10741.469    11067.624 
    8500    972.76602   -11043.531            0   -10741.881    11007.734 
    8600    1020.3019   -11049.968            0   -10733.577    11545.647 
    8700    1029.1367   -11045.603            0   -10726.472     11645.62 
    8800     1017.039   -11049.811            0   -10734.432    11508.723 
    8900    1000.2906   -11056.497            0   -10746.312    11319.201 
    9000     990.9799    -11053.73            0   -10746.432    11213.841 
    9100    1006.9335   -11050.851            0   -10738.605    11394.371 
    9200     1006.444   -11045.675            0   -10733.581    11388.832 
    9300    1015.4538   -11049.296            0   -10734.409    11490.786 
    9400    993.95724   -11056.359            0   -10748.138    11247.532 
    9500    983.03289   -11057.315            0   -10752.482    11123.913 
    9600    988.32935   -11052.725            0   -10746.249    11183.848 
    9700    1006.0755   -11047.273            0   -10735.294    11384.662 
    9800     991.6531    -11043.62            0   -10736.113    11221.459 
    9900    999.39695   -11052.275            0   -10742.367    11309.088 
   10000    977.47661   -11052.652            0   -10749.542    11061.039 
   10100    988.97944   -11054.873            0   -10748.195    11191.204 
   10200    1016.0511   -11045.862            0    -10730.79    11497.545 
   10300    1031.7421   -11050.449            0   -10730.511    11675.102 
   10400    993.79237   -11045.613            0   -10737.443    11245.667 
   10500    1008.0521   -11057.062            0   -10744.471    11407.028 
   10600    986.82561   -11050.264            0   -10744.254    11166.831 
   10700    1022.4501   -11047.214            0   -10730.157    11569.955 
   10800    1020.4474   -11045.003            0   -10728.567    11547.293 
   10900    1029.2645   -11053.485            0   -10734.315    11647.066 
   11000    994.86923   -11051.181            0   -10742.677    11257.852 
   11100    985.57986   -11050.075            0   -10744.452    11152.735 
   11200    1005.9879    -11055.11            0   -10743.158     11383.67 
   11300    995.49248   -11049.785            0   -10741.088    11264.905 
   11400     1002.783   -11037.513            0   -10726.555    11347.404 
   11500    1021.0429   -11035.096            0   -10718.475    11554.032 
   11600    1031.6005   -11045.294            0     -10725.4    11673.501 
   11700    1010.2895   -11049.189            0   -10735.904    11432.347 
   11800    997.41043   -11048.954            0   -10739.662    11286.608 
   11900    1000.3011   -11051.194            0   -10741.006    11319.319 
   12000    997.83413   -11043.618            0   -10734.195    11291.403 
   12100    1031.1433   -11045.541            0   -10725.789    11668.327 
   12200    1026.3297    -11046.93            0    -10728.67    11613.856 
   12300    986.88357   -11048.402            0   -10742.375    11167.487 
   12400    971.60667   -11048.778            0   -10747.488    10994.615 
   12500    980.64958   -11048.032            0   -10743.938    11096.944 
   12600    1011.5494   -11050.762            0   -10737.085    11446.604 
   12700    1019.2354    -11053.01            0    -10736.95    11533.578 
   12800    993.89357   -11056.918            0   -10748.716    11246.812 
   12900    988.21351   -11061.506            0   -10755.066    11182.537 
   13000    992.86832   -11055.989            0   -10748.106     11235.21 
   13100    994.40213   -11049.637            0   -10741.278    11252.567 
   13200    986.87559   -11043.465            0    -10737.44    11167.397 
   13300    1005.9221   -11047.012            0    -10735.08    11382.926 
   13400    1010.4835   -11051.791            0   -10738.445    11434.542 
   13500    978.11398   -11054.887            0   -10751.578    11068.251 
   13600    978.09094   -11058.265            0   -10754.963    11067.991 
   13700    1005.2367   -11058.685            0   -10746.966    11375.169 
   13800    1017.7806   -11058.112            0   -10742.504    11517.115 
   13900    986.98111    -11046.33            0   -10740.272    11168.591 
   14000    1000.1203   -11046.623            0   -10736.491    11317.273 
   14100    995.04642   -11042.074            0   -10733.515    11259.857 
   14200    1020.5142   -11052.053            0   -10735.596    11548.049 
   14300    994.90174   -11051.517            0   -10743.002     11258.22 
   14400    998.15882   -11058.018            0   -10748.493    11295.077 
   14500     993.6077   -11056.697            0   -10748.584    11243.577 
   14600    992.97229   -11049.564            0   -10741.649    11236.387 
   14700    1009.2182   -11042.292            0   -10729.338    11420.224 
   14800    1023.0672   -11043.673            0   -10726.425    11576.938 
   14900    1018.2373   -11050.828            0   -10735.078    11522.283 
   15000    993.25153   -11050.567            0   -10742.565    11239.547 
   15100    999.08887   -11055.492            0    -10745.68    11305.601 
   15200     971.3467   -11049.922            0   -10748.712    10991.673 
   15300    1015.9432   -11053.229            0    -10738.19    11496.324 
   15400    1016.3096    -11044.71            0   -10729.557     11500.47 
   15500     1029.174    -11048.72            0   -10729.578    11646.042 
   15600    1014.9548   -11050.441            0   -10735.709    11485.138 
   15700    1001.7765   -11051.598            0   -10740.952    11336.015 
   15800    991.96358   -11048.955            0   -10741.352    11224.972 
   15900    998.87674   -11049.921            0   -10740.174    11303.201 
   16000    1004.5974   -11049.905            0   -10738.385    11367.935 
   16100    992.61356   -11045.351            0   -10737.546    11232.327 
   16200    1013.9481   -11050.138            0   -10735.717    11473.747 
   16300    993.71669   -11044.612            0   -10736.466     11244.81 
   16400    996.45698   -11047.939            0   -10738.943    11275.819 
   16500    982.50914   -11048.265            0   -10743.593    11117.987 
   16600    985.05507   -11047.774            0   -10742.314    11146.796 
   16700    990.61715   -11038.578            0   -10731.393    11209.736 
   16800    1015.9359   -11042.053            0   -10727.016    11496.241 
   16900     1030.059   -11050.164            0   -10730.748    11656.056 
   17000    997.34191   -11056.438            0   -10747.167    11285.833 
   17100    996.61951   -11057.146            0     -10748.1    11277.658 
   17200    970.77161   -11046.727            0   -10745.695    10985.166 
   17300    1003.3017   -11047.074            0   -10735.955    11353.274 
   17400    1012.2753   -11043.584            0   -10729.682    11454.818 
   17500    1002.2536   -11039.224            0    -10728.43    11341.413 
   17600    1010.2869   -11040.124            0   -10726.839    11432.318 
   17700    992.90412   -11045.374            0   -10737.479    11235.615 
   17800    972.51101   -11050.532            0   -10748.961    11004.849 
   17900    999.23104   -11054.812            0   -10744.955     11307.21 
   18000    1026.7936   -11056.953            0   -10738.549    11619.106 
   18100    1003.3265   -11046.741            0   -10735.615    11353.555 
   18200    1013.1996    -11051.05            0   -10736.862    11465.278 
   18300    999.45744   -11056.484            0   -10746.558    11309.772 
   18400    974.09189     -11053.2            0   -10751.139    11022.738 
   18500    994.22697   -11050.599            0   -10742.294    11250.585 
   18600    1019.8053    -11047.93            0   -10731.693    11540.027 
   18700    992.82153    -11041.09            0   -10733.221    11234.681 
   18800    1007.8669   -11046.722            0   -10734.187    11404.933 
   18900    996.19918    -11048.41            0   -10739.494    11272.902 
   19000    989.99679   -11057.598            0   -10750.605    11202.716 
   19100    974.92459    -11052.66            0   -10750.341    11032.161 
   19200    960.91293   -11044.729            0   -10746.755    10873.606 
   19300    994.96535   -11048.938            0   -10740.405     11258.94 
   19400    1000.4084   -11047.841            0   -10737.619    11320.533 
   19500    1015.3712   -11051.062            0     -10736.2     11489.85 
   19600    1013.3902   -11054.787            0    -10740.54    11467.434 
   19700    986.03458   -11059.123            0   -10753.359     11157.88 
   19800    978.45662   -11058.932            0   -10755.517    11072.129 
   19900    989.10589   -11055.981            0   -10749.265    11192.635 
   20000    1013.0763   -11056.633            0   -10742.483    11463.882 
   20100    987.23434   -11045.226            0   -10739.089    11171.457 
   20200    1019.7931   -11049.086            0   -10732.853    11539.889 
   20300    1029.0826   -11043.085            0   -10723.972    11645.007 
   20400    1020.5058   -11041.323            0   -10724.869    11547.954 
   20500    1011.6405   -11052.088            0   -10738.383    11447.635 
   20600    985.11912   -11047.638            0   -10742.157    11147.521 
   20700    1015.6842   -11054.929            0    -10739.97    11493.392 
   20800    1009.0448    -11048.69            0   -10735.791    11418.262 
   20900    1028.7471   -11052.728            0   -10733.718    11641.211 
   21000    1027.9274   -11048.304            0   -10729.548    11631.935 
   21100    1012.6523   -11045.947            0   -10731.929    11459.084 
   21200    993.09181   -11049.201            0   -10741.248    11237.739 
   21300    972.21764   -11049.002            0   -10747.522    11001.529 
   21400    992.49755   -11053.298            0   -10745.529    11231.015 
   21500    1016.5769   -11045.118            0   -10729.883    11503.494 
   21600    1018.6897   -11044.014            0   -10728.123    11527.403 
   21700     1029.733   -11048.792            0   -10729.477    11652.367 
   21800    989.74447   -11047.561            0   -10740.646    11199.861 
   21900    1004.1592   -11057.432            0   -10746.047    11362.977 
   22000    986.24132   -11052.349            0    -10746.52     11160.22 
   22100    1003.4968   -11051.105            0   -10739.926    11355.482 
   22200    1001.0217   -11043.949            0   -10733.537    11327.473 
   22300    984.58461   -11039.095            0    -10733.78    11141.473 
   22400    1025.7751   -11053.952            0   -10735.864     11607.58 
   22500    1004.9005   -11054.301            0   -10742.686    11371.365 
   22600    989.08817   -11054.788            0   -10748.077    11192.434 
   22700     994.4924   -11054.911            0   -10746.524    11253.588 
   22800    1011.4712    -11052.05            0   -10738.398    11445.719 
   22900    1016.7626   -11044.782            0   -10729.489    11505.596 
   23000    1029.9265   -11044.051            0   -10724.676    11654.557 
   23100    1011.5058   -11043.002            0   -10729.339     11446.11 
   23200    1004.0659   -11055.366            0    -10744.01    11361.921 
   23300    982.28681   -11051.312            0    -10746.71    11115.471 
   23400    1008.8543   -11050.979            0   -10738.139    11416.107 
   23500    1034.4032   -11052.527            0   -10731.764    11705.216 
   23600    989.23404   -11041.961            0   -10735.204    11194.085 
   23700    1008.2048   -11053.969            0   -10741.329    11408.757 
   23800    983.79146       -11062            0   -10756.931    11132.497 
   23900    980.04043   -11059.305            0   -10755.399    11090.051 
   24000    1002.9926    -11056.24            0   -10745.217    11349.776 
   24100    987.42883    -11044.85            0   -10738.653    11173.657 
   24200    1026.7681   -11048.709            0   -10730.313    11618.818 
   24300    990.97786   -11036.945            0   -10729.648    11213.818 
   24400    1026.0998   -11053.738            0    -10735.55    11611.255 
   24500    994.72818   -11052.671            0   -10744.211    11256.256 
   24600    999.99277   -11054.443            0   -10744.351     11315.83 
   24700     1004.798   -11053.698            0   -10742.115    11370.205 
   24800    997.84644   -11047.262            0   -10737.834    11291.542 
   24900    1024.5901   -11047.984            0   -10730.264    11594.171 
   25000    1021.7134   -11048.483            0   -10731.655    11561.619 
   25100    974.42538   -11047.335            0    -10745.17    11026.512 
   25200    992.79538   -11054.594            0   -10746.733    11234.385 
   25300    990.49546   -11047.041            0   -10739.893    11208.359 
   25400    993.38468   -11040.379            0   -10732.335    11241.053 
   25500    987.23245   -11039.447            0   -10733.311    11171.435 
   25600    991.48096   -11044.256            0   -10736.802    11219.511 
   25700     985.0701   -11046.712            0   -10741.247    11146.966 
   25800    938.54475   -11044.179            0   -10753.141     10620.49 
   25900    989.43756   -11056.471            0   -10749.651    11196.388 
   26000    992.15034   -11045.288            0   -10737.627    11227.086 
   26100    1011.7788   -11049.599            0   -10735.851      11449.2 
   26200     980.8748   -11043.244            0    -10739.08    11099.493 
   26300    994.45006   -11050.382            0   -10742.008    11253.109 
   26400     996.6089   -11051.559            0   -10742.515    11277.538 
   26500    997.73588   -11053.603            0    -10744.21    11290.291 
   26600    998.63941    -11052.67            0   -10742.997    11300.515 
   26700    990.45315   -11051.146            0   -10744.011     11207.88 
   26800    986.67455   -11049.391            0   -10743.428    11165.122 
   26900    1003.3424   -11044.482            0   -10733.351    11353.734 
   27000    1017.8076   -11042.285            0   -10726.668     11517.42 
   27100    1025.0226   -11048.667            0   -10730.813    11599.065 
   27200    977.72122   -11042.578            0   -10739.392    11063.807 
   27300    992.91099   -11044.545            0   -10736.648    11235.693 
   27400    1021.1234   -11046.891            0   -10730.245    11554.942 
   27500    995.29791   -11038.897            0    -10730.26    11262.703 
   27600    1006.6275   -11047.577            0   -10735.427    11390.908 
   27700    979.92767   -11050.573            0   -10746.702    11088.775 
   27800    990.35841   -11056.474            0   -10749.368    11206.808 
   27900    988.83008   -11047.446            0   -10740.815    11189.514 
   28000    1015.0147   -11046.732            0   -10731.981    11485.817 
   28100    1028.4917   -11054.626            0   -10735.696    11638.322 
   28200    990.12354   -11048.076            0   -10741.044    11204.151 
   28300    1005.1434   -11051.124            0   -10739.434    11374.114 
   28400    1024.5242   -11049.636            0   -10731.936    11593.425 
   28500    993.17335   -11039.752            0   -10731.774    11238.662 
   28600    983.89397   -11045.922            0   -10740.821    11133.657 
   28700    986.10317   -11050.893            0   -10745.107    11158.656 
   28800     989.0355   -11053.606            0   -10746.911    11191.838 
   28900    982.26619   -11058.039            0   -10753.443    11115.237 
   29000    990.10262   -11065.221            0   -10758.195    11203.914 
   29100     970.2188    -11049.49            0    -10748.63     10978.91 
   29200    1009.9163   -11051.789            0   -10738.619    11428.123 
   29300    1004.8135    -11046.04            0   -10734.452     11370.38 
   29400    1020.0202   -11048.642            0   -10732.338    11542.459 
   29500    1027.3771   -11053.502            0   -10734.917    11625.709 
   29600    984.10236   -11052.755            0    -10747.59    11136.015 
   29700     985.8021   -11056.481            0   -10750.789     11155.25 
   29800    1001.8645   -11056.153            0    -10745.48    11337.011 
   29900    1009.0358   -11051.194            0   -10738.297     11418.16 
   30000    1049.9208   -11050.916            0   -10725.341    11880.811 
   30100    1022.5764   -11039.791            0   -10722.695    11571.384 
   30200    992.91018   -11045.581            0   -10737.684    11235.684 
   30300    1002.0389   -11051.999            0   -10741.272    11338.983 
   30400     1000.288   -11057.009            0   -10746.824    11319.171 
   30500    960.48373   -11044.508            0   -10746.667    10868.749 
   30600    1005.0018   -11044.995            0   -10733.349    11372.512 
   30700     1019.476   -11046.317            0   -10730.183      11536.3 
   30800    1006.8787   -11046.657            0   -10734.429    11393.751 
   30900    1011.4927   -11055.089            0    -10741.43    11445.962 
   31000    986.84185   -11054.562            0   -10748.547    11167.015 
   31100    993.89245   -11063.263            0   -10755.062    11246.799 
   31200    990.19015   -11061.147            0   -10754.094    11204.904 
   31300    973.85595   -11044.121            0   -10742.133    11020.068 
   31400     1014.754   -11048.779            0   -10734.109    11482.867 
   31500    1000.2559    -11041.05            0   -10730.875    11318.807 
   31600    1008.7665   -11042.327            0   -10729.514    11415.112 
   31700    998.80287   -11049.274            0   -10739.551    11302.365 
   31800    983.99536   -11054.367            0   -10749.235    11134.805 
   31900     1003.308   -11060.365            0   -10749.244    11353.345 
   32000    1009.3117   -11058.545            0   -10745.562    11421.282 
   32100    1017.0314   -11046.931            0   -10731.554    11508.638 
   32200      1027.09   -11047.146            0   -10728.651     11622.46 
   32300    981.21591   -11038.359            0   -10734.089    11103.353 
   32400    977.96254   -11042.491            0    -10739.23    11066.538 
   32500    1020.0977    -11062.13            0   -10745.803    11543.335 
   32600    981.17124    -11060.92            0   -10756.664    11102.847 
   32700    973.73394   -11051.002            0   -10749.052    11018.687 
   32800    988.40616   -11047.134            0   -10740.634    11184.717 
   32900    1013.1045   -11048.712            0   -10734.553    11464.201 
   33000    1024.4661   -11048.674            0   -10730.992    11592.768 
   33100    994.09291   -11049.202            0   -10740.939    11249.068 
   33200    1008.4232   -11060.967            0    -10748.26    11411.228 
   33300    988.09741   -11054.033            0   -10747.629    11181.223 
   33400    990.51015   -11049.198            0   -10742.046    11208.525 
   33500    1030.3355   -11052.708            0   -10733.206    11659.185 
   33600    1011.2588   -11046.875            0   -10733.289    11443.315 
   33700    980.44139   -11053.148            0   -10749.118    11094.588 
   33800     949.7545   -11048.812            0   -10754.298    10747.338 
   33900    998.45099   -11053.536            0   -10743.921    11298.383 
   34000    1011.0911   -11049.796            0   -10736.262    11441.417 
   34100    992.79332    -11040.63            0    -10732.77    11234.362 
   34200    991.91773   -11037.462            0   -10729.873    11224.453 
   34300     1013.622   -11042.806            0   -10728.486    11470.057 
   34400    997.65032   -11046.715            0   -10737.348    11289.323 
   34500    985.81921   -11050.564            0   -10744.867    11155.443 
   34600    980.66206   -11046.041            0   -10741.943    11097.085 
   34700    993.13238    -11039.46            0   -10731.494    11238.198 
   34800     1012.635   -11043.889            0   -10729.876    11458.888 
   34900    1021.8979   -11051.391            0   -10734.505    11563.706 
   35000    1009.5098   -11053.215            0   -10740.171    11423.523 
   35100    1008.5518   -11056.385            0   -10743.638    11412.683 
   35200    989.57176   -11050.591            0   -10743.729    11197.907 
   35300    1025.4784   -11050.935            0   -10732.939    11604.223 
   35400    1029.3339   -11043.297            0   -10724.105    11647.851 
   35500    1023.5072   -11048.216            0   -10730.831    11581.917 
   35600     1008.638   -11054.392            0   -10741.618    11413.659 
   35700     997.5509   -11054.876            0    -10745.54    11288.198 
   35800    979.41204   -11045.928            0   -10742.217     11082.94 
   35900    1023.4539   -11049.148            0    -10731.78    11581.314 
   36000    1022.2822   -11045.823            0   -10728.819    11568.055 
   36100    1012.0999   -11048.233            0   -10734.386    11452.833 
   36200    1018.5419   -11052.688            0   -10736.843     11525.73 
   36300    1025.6845   -11057.799            0   -10739.739    11606.555 
   36400    991.15407   -11051.765            0   -10744.413    11215.812 
   36500    993.05002   -11054.235            0   -10746.295    11237.266 
   36600    1003.5035   -11049.399            0   -10738.218    11355.558 
   36700    1007.9181   -11044.272            0   -10731.722    11405.512 
   36800    1007.0432   -11046.756            0   -10734.477    11395.612 
   36900    1000.2588    -11057.43            0   -10747.254     11318.84 
   37000    977.82957   -11053.591            0   -10750.371    11065.033 
   37100    981.27238   -11050.595            0   -10746.307    11103.992 
   37200    1019.7365   -11055.449            0   -10739.234    11539.248 
   37300     1009.552    -11051.35            0   -10738.292    11424.002 
   37400    1001.4083   -11049.496            0   -10738.964    11331.848 
   37500    983.32473   -11056.043            0   -10751.119    11127.216 
   37600    982.97855   -11056.456            0   -10751.639    11123.299 
   37700    987.84184   -11049.377            0   -10743.052    11178.331 
   37800    1012.5543   -11049.229            0    -10735.24    11457.976 
   37900     1001.896   -11044.349            0   -10733.666    11337.367 
   38000    1023.9548   -11057.827            0   -10740.304    11586.982 
   38100    998.01102    -11054.91            0   -10745.432    11293.405 
   38200    998.51753   -11052.571            0   -10742.936    11299.136 
   38300    1017.4014   -11052.884            0   -10737.393    11512.825 
   38400    1018.1757   -11051.858            0   -10736.127    11521.586 
   38500    1003.7589    -11047.98            0    -10736.72    11358.447 
   38600    993.23715   -11049.114            0   -10741.116    11239.384 
   38700    994.80328   -11056.559            0   -10748.075    11257.106 
   38800    956.61302   -11049.842            0   -10753.201    10824.948 
   38900    1004.1134   -11054.532            0   -10743.162    11362.459 
   39000    999.24334   -11043.852            0   -10733.991    11307.349 
   39100    1005.9201   -11044.026            0   -10732.095    11382.903 
   39200    1003.5435   -11047.059            0   -10735.865     11356.01 
   39300    960.44192   -11042.569            0   -10744.741    10868.276 
   39400    1000.4645   -11062.184            0   -10751.944    11321.168 
   39500    970.01593   -11056.937            0   -10756.139    10976.615 
   39600    985.60201   -11054.166            0   -10748.536    11152.985 
   39700    994.65981   -11047.861            0   -10739.422    11255.483 
   39800    1028.4966   -11059.776            0   -10740.845    11638.377 
   39900     972.8542   -11049.746            0   -10748.069    11008.732 
   40000    980.67145   -11051.127            0   -10747.026    11097.192 
   40100    1012.2331   -11045.495            0   -10731.607    11454.341 
   40200    990.17419   -11038.416            0   -10731.368    11204.724 
   40300    998.76691   -11046.934            0   -10737.221    11301.958 
   40400    996.49055   -11051.129            0   -10742.122    11276.199 
   40500    977.65483   -11049.145            0   -10745.979    11063.056 
   40600    1006.4653   -11048.257            0   -10736.157    11389.073 
   40700    1002.4027   -11040.177            0   -10729.337    11343.101 
   40800    1025.1022     -11047.5            0   -10729.621    11599.966 
   40900    979.27365   -11047.257            0   -10743.589    11081.374 
   41000    1010.4636    -11059.74            0     -10746.4    11434.317 
   41100    987.89022   -11047.502            0   -10741.162    11178.878 
   41200    1000.3114   -11042.474            0   -10732.282    11319.436 
   41300    1021.7733   -11045.862            0   -10729.015    11562.296 
   41400    999.17897   -11044.403            0   -10734.563    11306.621 
   41500    989.67501    -11044.72            0   -10737.826    11199.075 
   41600    1014.5406   -11050.535            0   -10735.931    11480.452 
   41700    987.34497   -11045.484            0   -10739.314    11172.708 
   41800    971.46941   -11050.862            0   -10749.614    10993.062 
   41900    987.97363   -11056.455            0   -10750.089    11179.822 
   42000    1006.0024   -11059.909            0   -10747.953    11383.834 
   42100    995.82572   -11053.389            0   -10744.588    11268.676 
   42200    1000.6926   -11047.846            0   -10737.536    11323.749 
   42300    1050.1041   -11054.525            0   -10728.893    11882.885 
   42400    1001.2751   -11042.788            0   -10732.298     11330.34 
   42500    987.93474   -11054.908            0   -10748.554    11179.382 
   42600    975.58012   -11050.905            0   -10748.383    11039.578 
   42700    988.05767   -11044.168            0   -10737.776    11180.773 
   42800    1020.9865   -11049.213            0    -10732.61    11553.393 
   42900    1017.7693   -11049.992            0   -10734.387    11516.988 
   43000    1000.6919   -11053.396            0   -10743.087    11323.741 
   43100    957.84234   -11049.524            0   -10752.502    10838.859 
   43200    994.04355   -11055.234            0   -10746.986    11248.509 
   43300    1016.6221   -11050.149            0     -10734.9    11504.006 
   43400    1014.6399   -11048.685            0    -10734.05    11481.576 
   43500    1004.0541    -11053.63            0   -10742.278    11361.787 
   43600    975.07129   -11050.839            0   -10748.474    11033.821 
   43700    983.49233   -11049.637            0   -10744.661    11129.112 
   43800    1014.3361    -11049.13            0   -10734.589    11478.137 
   43900    1012.4617   -11047.429            0   -10733.469    11456.928 
   44000    985.48945   -11043.328            0   -10737.733    11151.712 
   44100    1007.3045   -11051.396            0   -10739.036    11398.569 
   44200    1006.7089    -11051.87            0   -10739.695    11391.829 
   44300    998.63852   -11053.658            0   -10743.985    11300.505 
   44400    984.39159    -11060.08            0   -10754.825    11139.288 
   44500     1002.168   -11067.932            0   -10757.164    11340.445 
   44600    1002.5983   -11050.413            0   -10739.512    11345.313 
   44700    1017.5076   -11049.557            0   -10734.033    11514.027 
   44800    1013.5948   -11048.046            0   -10733.735    11469.749 
   44900    999.34504   -11047.454            0   -10737.562      11308.5 
   45000    979.32728   -11047.753            0   -10744.068    11081.981 
   45100     993.0762    -11049.98            0   -10742.032    11237.563 
   45200    1033.7734   -11049.284            0   -10728.716    11698.089 
   45300    1021.3298   -11047.372            0   -10730.663    11557.278 
   45400     1016.725   -11054.263            0   -10738.981     11505.17 
   45500    999.44621   -11052.801            0   -10742.877    11309.645 
   45600    1018.0688   -11056.939            0   -10741.241    11520.377 
   45700    1018.2245   -11058.098            0   -10742.351    11522.138 
   45800    991.38728   -11045.021            0   -10737.597    11218.451 
   45900    1026.6958   -11045.551            0   -10727.177    11617.999 
   46000    1005.3016   -11041.174            0   -10729.435    11375.904 
   46100     996.2344   -11047.591            0   -10738.663    11273.301 
   46200    989.97672   -11049.968            0   -10742.981    11202.489 
   46300    996.21128   -11053.803            0   -10744.883    11273.039 
   46400    989.79708   -11059.497            0   -10752.566    11200.456 
   46500    987.09514   -11060.492            0   -10754.399    11169.881 
   46600    999.19835   -11057.293            0   -10747.446     11306.84 
   46700    1007.6077   -11050.576            0   -10738.122        11402 
   46800    1017.6388   -11050.265            0     -10734.7    11515.511 
   46900    985.03057   -11042.814            0   -10737.361    11146.519 
   47000    992.97298   -11052.373            0   -10744.457    11236.395 
   47100    972.89806    -11054.84            0   -10753.149    11009.229 
   47200    982.14131   -11051.106            0   -10746.549    11113.824 
   47300    995.74111   -11046.676            0   -10737.901    11267.718 
   47400    990.27312   -11044.731            0   -10737.653    11205.843 
   47500    1006.9273   -11050.608            0   -10738.365      11394.3 
   47600    976.78249   -11044.403            0   -10741.508    11053.184 
   47700    983.75189   -11046.735            0   -10741.679    11132.049 
   47800    1028.4321   -11053.386            0   -10734.474    11637.647 
   47900    1009.6501    -11047.16            0   -10734.073    11425.111 
   48000    983.47967   -11049.354            0   -10744.382    11128.969 
   48100    1026.4605   -11067.556            0   -10749.255    11615.336 
   48200    992.47557   -11054.978            0   -10747.216    11230.766 
   48300    1028.1571   -11062.415            0   -10743.589    11634.535 
   48400    987.57479   -11050.616            0   -10744.374    11175.309 
   48500    1000.0522   -11052.408            0   -10742.297    11316.502 
   48600    999.15309   -11047.918            0   -10738.086    11306.328 
   48700    1034.6434   -11051.254            0   -10730.416    11707.933 
   48800    1022.1376   -11042.792            0   -10725.832    11566.419 
   48900    1003.1051   -11046.002            0   -10734.944    11351.048 
   49000    986.18633   -11049.644            0   -10743.832    11159.597 
   49100    995.74432    -11050.22            0   -10741.444    11267.755 
   49200    1019.7981   -11050.261            0   -10734.026    11539.945 
   49300    1012.0008   -11047.606            0    -10733.79    11451.712 
   49400     989.7081   -11056.694            0   -10749.791     11199.45 
   49500    976.39224   -11057.397            0   -10754.623    11048.768 
   49600    982.00589   -11053.252            0   -10748.737    11112.292 
   49700     1002.561   -11048.427            0   -10737.538    11344.892 
   49800      1011.67   -11046.496            0   -10732.782    11447.968 
   49900    1000.2007   -11042.166            0   -10732.009    11318.182 
   50000    1004.6197   -11046.717            0   -10735.189    11368.188 
Loop time of 16894.9 on 1 procs for 50000 steps with 2400 atoms

Performance: 0.256 ns/day, 93.861 hours/ns, 2.959 timesteps/s
91.8% CPU use with 1 MPI tasks x 1 OpenMP threads

MPI task timing breakdown:
Section |  min time  |  avg time  |  max time  |%varavg| %total
---------------------------------------------------------------
Pair    | 16857      | 16857      | 16857      |   0.0 | 99.77
Neigh   | 30.34      | 30.34      | 30.34      |   0.0 |  0.18
Comm    | 3.3748     | 3.3748     | 3.3748     |   0.0 |  0.02
Output  | 0.016509   | 0.016509   | 0.016509   |   0.0 |  0.00
Modify  | 3.533      | 3.533      | 3.533      |   0.0 |  0.02
Other   |            | 1.101      |            |       |  0.01

Nlocal:        2400.00 ave        2400 max        2400 min
Histogram: 1 0 0 0 0 0 0 0 0 0
Nghost:        5162.00 ave        5162 max        5162 min
Histogram: 1 0 0 0 0 0 0 0 0 0
Neighs:         0.00000 ave           0 max           0 min
Histogram: 1 0 0 0 0 0 0 0 0 0
FullNghs:      280640.0 ave      280640 max      280640 min
Histogram: 1 0 0 0 0 0 0 0 0 0

Total # of neighbors = 280640
Ave neighs/atom = 116.93333
Neighbor list builds = 1952
Dangerous builds = 0

velocity        all scale ${Tsim}
velocity        all scale 1000
unfix           1

#-----------------------------------------
# 2nd equilibration run
compute         ke all ke/atom
variable        temp atom c_ke/1.5

fix             1 all nve

compute         layers all chunk/atom bin/1d z lower 0.05 units reduced # <--- delta z ?
fix             2 all ave/chunk 10 100 1000 layers v_temp file profile.mp # <--- use every 10 steps, 100 times, repeat every 1000 steps
fix             3 all thermal/conductivity 10 z 20 # <--- perform kintic energy swap every 10 steps, using 20 bins

variable        tdiff equal f_2[11][3]-f_2[1][3]
thermo_style    custom step temp epair etotal f_3 v_tdiff
thermo          1000
#thermo_modify   colname f_3 E_delta colname v_tdiff dTemp_step


run 200000
Per MPI rank memory allocation (min/avg/max) = 4.240 | 4.240 | 4.240 Mbytes
Step Temp E_pair TotEng f_3 v_tdiff 
   50000         1000   -11046.715    -10736.62            0            0 
   51000    1007.3906   -11048.973   -10736.586    41.924769  0.026572763 
   52000    1006.2184   -11048.623     -10736.6    75.997905  0.040698083 
   53000    991.62745   -11044.095   -10736.596    110.12784  0.049749944 
   54000    1014.4837   -11051.194   -10736.608    145.15048  0.048010286 
   55000    1013.1967   -11050.805   -10736.617    178.44134  0.051503475 
   56000    1000.5928   -11046.878   -10736.599    212.77275  0.051926369 
   57000    1013.7121   -11050.956   -10736.609     246.3909  0.049259958 
   58000    997.06952   -11045.794   -10736.608    280.17538  0.054265797 
   59000    993.44821   -11044.667   -10736.604    313.85162  0.050243398 
   60000    1017.8982   -11052.272   -10736.627    344.53164  0.048403228 
   61000     1011.664   -11050.342    -10736.63    379.49924  0.049892525 
   62000    987.00477   -11042.688   -10736.622    411.54877   0.05457274 
   63000    977.69585   -11039.791   -10736.612    445.04605  0.053111101 
   64000    1011.4532    -11050.28   -10736.634    478.03897  0.054400178 
   65000    1015.3195   -11051.468   -10736.622    510.14596  0.059458397 
   66000    1006.8859   -11048.854   -10736.624    542.85667  0.052678133 
   67000    994.35022   -11044.979   -10736.636    575.67097  0.051991231 
   68000     1022.092   -11053.572   -10736.627    606.52001  0.052115064 
   69000    1000.7964   -11046.979   -10736.637    638.99991    0.0511626 
   70000    988.90712   -11043.288   -10736.633    673.92046  0.051599875 
   71000    990.43914   -11043.775   -10736.645    707.08111  0.049788173 
   72000    1014.7251    -11051.31   -10736.648    741.15609  0.043612399 
   73000    1012.2891   -11050.564   -10736.659    774.47696  0.048596743 
   74000    980.23035   -11040.595    -10736.63    808.17503  0.048803185 
   75000    994.61302   -11045.062   -10736.638    843.33725  0.049856584 
   76000    1011.6898   -11050.369   -10736.649    874.96911  0.056395401 
   77000    999.35661   -11046.527   -10736.632    906.49737  0.050930665 
   78000    1008.5949    -11049.42    -10736.66    938.96934  0.051114769 
   79000    1007.2622   -11048.995   -10736.648    972.11714  0.045476579 
   80000    1007.3801   -11049.033    -10736.65     1005.052  0.051284297 
   81000    1023.2259   -11053.949   -10736.652    1038.4458   0.05141917 
   82000    1000.1444   -11046.789   -10736.649    1071.6351  0.049671005 
   83000    1031.7615   -11056.608   -10736.664    1105.1745  0.049699398 
   84000    1029.1625   -11055.805   -10736.666    1139.8755  0.048814987 
   85000    1017.6445   -11052.207    -10736.64    1172.8017  0.045735468 
   86000     1006.983   -11048.933   -10736.672    1207.1935  0.047777786 
   87000    1006.8007   -11048.859   -10736.655    1241.1383  0.049502243 
   88000    1002.2888   -11047.479   -10736.675    1276.9626  0.049647805 
   89000    1005.2333   -11048.395   -10736.677    1309.0834  0.049289626 
   90000    1000.9257    -11047.05   -10736.668    1342.6472  0.049282216 
   91000    1022.6795   -11053.797   -10736.669    1377.0923  0.050358875 
   92000      971.645    -11037.97   -10736.667    1408.9965  0.054423234 
   93000     1026.042   -11054.841    -10736.67    1442.9246  0.049771616 
   94000    989.51826   -11043.519   -10736.674     1476.441  0.050288164 
   95000    1012.5148   -11050.646   -10736.671    1509.9864  0.052302492 
   96000    996.49039   -11045.673   -10736.666    1541.7647  0.050361432 
   97000    1014.0639   -11051.125   -10736.669    1574.8023  0.049815206 
   98000    1002.2049   -11047.453   -10736.674    1608.4379  0.050767465 
   99000     1009.608   -11049.758   -10736.683    1640.6527  0.052932433 
  100000    1008.7111   -11049.433   -10736.636    1674.5438  0.047043115 
  101000    997.17863   -11045.864   -10736.644     1707.829  0.054694531 
  102000    994.03503   -11044.894   -10736.648    1739.3183  0.051848003 
  103000    1010.7613   -11050.103    -10736.67    1772.5555  0.051256094 
  104000    995.15727   -11045.271   -10736.677     1805.625  0.056093432 
  105000    1013.8995   -11051.067   -10736.662    1838.1992  0.055175408 
  106000    1016.5631   -11051.901    -10736.67     1872.257  0.050762745 
  107000    1007.5317   -11049.077   -10736.647    1904.5726  0.053650926 
  108000    996.72603    -11045.75    -10736.67    1938.3636  0.048673736 
  109000    1003.7341   -11047.918   -10736.665    1972.0594  0.051993824 
  110000     1008.274   -11049.333   -10736.672    2003.9007  0.053087595 
  111000    996.01345   -11045.537   -10736.678    2035.8287  0.049022264 
  112000    987.14108   -11042.761   -10736.653    2068.5231  0.049141361 
  113000    1034.9506   -11057.617   -10736.684    2101.3751  0.050523885 
  114000    996.57132   -11045.681   -10736.649    2135.8499   0.05050012 
  115000    995.40297   -11045.346   -10736.676    2169.0507  0.055300025 
  116000    990.88682    -11043.93   -10736.661    2202.0307  0.042717954 
  117000    989.92113   -11043.612   -10736.643     2235.352  0.050483018 
  118000    1029.3244   -11055.854   -10736.666    2267.6918  0.058758001 
  119000    991.13654   -11043.992   -10736.646    2299.6761  0.051384947 
  120000    1008.8986   -11049.508   -10736.653    2332.8703  0.048376746 
  121000    968.94213    -11037.12   -10736.656    2367.8026  0.046428122 
  122000    996.96174   -11045.811   -10736.658    2401.0291  0.051976876 
  123000    1001.7156   -11047.294   -10736.667    2434.3468  0.054531244 
  124000     1025.316   -11054.594   -10736.648    2467.3261  0.049372967 
  125000    1013.7347   -11050.997   -10736.643    2501.8878  0.045130736 
  126000    1012.6285   -11050.649   -10736.638    2535.9787  0.056763824 
  127000    1030.7165   -11056.258   -10736.638     2570.011  0.050893057 
  128000    1008.5857   -11049.405   -10736.648    2604.3069   0.04727019 
  129000    1008.1343   -11049.269   -10736.651    2638.0072  0.045330521 
  130000    1009.6468   -11049.756   -10736.669    2673.1759  0.047854197 
  131000    1001.0882   -11047.068   -10736.636    2707.3719   0.04868255 
  132000    1006.4934   -11048.768   -10736.659    2741.2099  0.057145956 
  133000    1015.8036   -11051.648   -10736.653    2773.9767  0.051981477 
  134000    999.29405   -11046.527   -10736.651     2806.501  0.051925284 
  135000    1001.8289   -11047.327   -10736.665    2839.7435   0.05483496 
  136000    1007.1586   -11049.002   -10736.687    2871.1822  0.054861926 
  137000    1008.8892   -11049.519   -10736.667    2902.3011  0.055859191 
  138000    1017.9443   -11052.322   -10736.663     2935.674  0.048382467 
  139000    1021.4593   -11053.432   -10736.682    2970.1052  0.052794326 
  140000    1027.1226   -11055.178   -10736.672    3002.2263  0.054872499 
  141000    1000.5588    -11046.94   -10736.672    3036.0821  0.056122894 
  142000    982.72044   -11041.398   -10736.662    3067.3356  0.055290642 
  143000    1011.6207   -11050.363   -10736.665    3099.5401  0.051446366 
  144000    987.78421   -11042.979   -10736.672    3132.4174  0.054162918 
  145000    1009.6049    -11049.78   -10736.707    3164.4572  0.055032648 
  146000     1010.243   -11049.954   -10736.683    3196.7539  0.051081179 
  147000     1031.839   -11056.666   -10736.698    3230.2217  0.053988284 
  148000    992.93541   -11044.583   -10736.679    3262.5515  0.046490387 
  149000    994.24924   -11044.979   -10736.668    3295.8412  0.049311462 
  150000      1010.34    -11050.01   -10736.708     3329.589  0.046929449 
  151000    977.18426   -11039.721   -10736.701    3363.1181  0.051667289 
  152000    1012.5831   -11050.698   -10736.701    3396.8298  0.054015872 
  153000     996.4195   -11045.681   -10736.696    3430.7969  0.047977183 
  154000    1008.8986   -11049.575   -10736.721    3464.0814  0.046756873 
  155000     1006.155   -11048.701   -10736.697    3496.6405  0.051728158 
  156000    990.54012    -11043.86   -10736.699    3530.2553    0.0567841 
  157000    1014.2616   -11051.226   -10736.708    3563.0176  0.049535048 
  158000     1018.061   -11052.407   -10736.712    3598.2085  0.052906899 
  159000    996.96394   -11045.855   -10736.702    3630.6298  0.054373009 
  160000    990.31726   -11043.803    -10736.71    3663.0906  0.051762377 
  161000    1008.8025   -11049.519   -10736.694    3695.4276  0.049573801 
  162000     999.9326   -11046.784    -10736.71    3730.5116  0.047968208 
  163000    990.16681   -11043.763   -10736.717    3765.4783   0.04903372 
  164000    1002.7937   -11047.668   -10736.707    3798.8692  0.055209864 
  165000    1005.8526   -11048.636   -10736.726    3832.2877   0.05005418 
  166000    1004.5759   -11048.244    -10736.73     3864.752  0.050039971 
  167000    1004.4983   -11048.234   -10736.744    3895.3471   0.05449373 
  168000    1004.5067   -11048.225   -10736.732    3926.3185  0.058061357 
  169000    1008.5151   -11049.494   -10736.759     3959.095  0.055530126 
  170000    1009.2445   -11049.712    -10736.75    3993.1416  0.047887896 
  171000    996.16669   -11045.644   -10736.737    4026.0578  0.053401877 
  172000    1003.0613   -11047.796   -10736.752    4058.4713   0.04904479 
  173000    1024.4022   -11054.405   -10736.743    4092.2499  0.048314986 
  174000     1001.088   -11047.191   -10736.759    4124.4269  0.052115239 
  175000    1010.9922   -11050.244    -10736.74    4155.8359  0.055771482 
  176000    989.73709   -11043.664   -10736.751     4188.158  0.053200956 
  177000    999.35264   -11046.636   -10736.741    4221.4875  0.049816685 
  178000     1004.449   -11048.229   -10736.755    4254.2385  0.054986995 
  179000    1017.8475   -11052.382   -10736.752    4286.6134   0.04672728 
  180000    999.43666   -11046.673   -10736.752    4321.5307  0.046537267 
  181000    993.81729    -11044.92   -10736.742    4355.3355  0.051105067 
  182000    977.35991   -11039.817   -10736.743     4388.819  0.050967734 
  183000    1012.9921   -11050.883   -10736.759    4420.7933  0.053819894 
  184000    996.13807   -11045.657    -10736.76    4452.8312  0.052338844 
  185000    993.73738    -11044.92   -10736.767    4483.8238  0.051151088 
  186000    1004.3222   -11048.193   -10736.758    4516.9908  0.053187396 
  187000    1007.9532   -11049.296   -10736.735    4551.1499  0.050570482 
  188000    1008.5918   -11049.512   -10736.752    4583.9491  0.046811377 
  189000    1018.9898   -11052.738   -10736.755    4617.6781  0.046203738 
  190000    974.52961   -11038.917    -10736.72    4648.5915  0.050984574 
  191000     1011.897   -11050.521   -10736.737    4679.8233  0.052051364 
  192000    997.17317   -11045.937   -10736.718    4712.7513  0.050834924 
  193000     983.5446   -11041.722   -10736.729    4746.5297  0.050982409 
  194000    994.83442   -11045.196   -10736.703    4779.5703  0.055145298 
  195000    1008.9292   -11049.592   -10736.728    4812.7153  0.056204758 
  196000    1005.6123   -11048.579   -10736.744    4844.7976  0.053145746 
  197000    1004.5985   -11048.232   -10736.711    4876.7937  0.054486892 
  198000    974.47471   -11038.897   -10736.718    4909.1733  0.051217036 
  199000    1010.6597   -11050.135   -10736.734    4945.1653  0.042651782 
  200000    1009.1064   -11049.637   -10736.718    4979.0934  0.049410624 
  201000    994.67741   -11045.159   -10736.715    5012.1649   0.05173953 
  202000    992.09045   -11044.363   -10736.721    5044.2986  0.052641957 
  203000    985.19511   -11042.212   -10736.708    5078.5399  0.053570894 
  204000    1006.5044   -11048.818   -10736.706    5112.0753  0.050904349 
  205000    1003.5614   -11047.916   -10736.717    5145.4362  0.049615487 
  206000    998.55857   -11046.358    -10736.71    5178.3876  0.055675934 
  207000    1005.8311   -11048.588   -10736.685    5209.4848  0.056956028 
  208000    1000.3599   -11046.934   -10736.727    5242.4278  0.053380103 
  209000    996.38902   -11045.691   -10736.716    5274.7985  0.054424317 
  210000    991.92707   -11044.325   -10736.733    5306.8599  0.053542362 
  211000    1012.7252   -11050.781    -10736.74    5338.6298  0.051767043 
  212000    1019.0165   -11052.717   -10736.725    5370.3816  0.050387737 
  213000    1003.7547   -11048.005   -10736.745    5404.1122  0.049325061 
  214000    1019.4049   -11052.849   -10736.736    5437.2491  0.055154268 
  215000    1025.0827   -11054.597   -10736.724    5470.0297  0.055215113 
  216000    989.34813   -11043.535   -10736.743    5502.2504  0.052193134 
  217000    1022.4371   -11053.787   -10736.734    5535.1785  0.052864241 
  218000    993.37526   -11044.777   -10736.737    5569.2055  0.046622824 
  219000    986.57054   -11042.656   -10736.726    5603.4303  0.051334836 
  220000    1006.5629   -11048.876   -10736.746    5636.0386  0.052912967 
  221000    1009.7505   -11049.887   -10736.768    5668.0505  0.055165784 
  222000    1007.5218   -11049.184   -10736.756    5700.6275  0.057163635 
  223000    1002.1142   -11047.511    -10736.76    5732.2352  0.053255532 
  224000    1032.1135   -11056.823    -10736.77    5765.3362  0.050856478 
  225000    997.70298   -11046.149   -10736.767    5799.2032  0.056503405 
  226000    1022.7517   -11053.926   -10736.776    5832.2788  0.053086003 
  227000    1019.4976   -11052.908   -10736.767    5864.8752   0.05775443 
  228000    985.18115   -11042.257   -10736.757    5898.3713  0.052644434 
  229000    999.93178   -11046.837   -10736.763    5931.1494  0.053781278 
  230000    1018.0429   -11052.457   -10736.767    5962.6302  0.055544889 
  231000    1015.2262   -11051.605   -10736.789     5993.177  0.052484439 
  232000    1003.7054   -11047.998   -10736.754    6025.5287   0.05289872 
  233000     1005.231   -11048.465   -10736.748    6059.7668  0.052710279 
  234000    1013.2999   -11050.987   -10736.768    6092.8436  0.052925295 
  235000    1021.0853   -11053.412   -10736.779     6126.623  0.052943604 
  236000    992.70559   -11044.604   -10736.771    6159.1645  0.052375769 
  237000    1023.7114    -11054.23   -10736.783    6190.9724  0.055629894 
  238000    1007.8485   -11049.308   -10736.779     6224.178  0.053132722 
  239000    999.60259   -11046.739   -10736.767    6256.1845  0.053899749 
  240000    999.09475   -11046.584    -10736.77    6289.7999  0.050334923 
  241000     977.2085   -11039.799   -10736.771    6319.8048  0.052031387 
  242000    980.48539   -11040.779   -10736.736    6352.6896  0.046713447 
  243000    1018.7904   -11052.714   -10736.792    6385.8187  0.053845334 
  244000    990.45776   -11043.928   -10736.792    6418.4399  0.054514593 
  245000    992.39381   -11044.521   -10736.785     6450.169  0.053475967 
  246000    1005.3515   -11048.548   -10736.793    6481.2538  0.058346228 
  247000    1002.0431     -11047.5   -10736.771    6513.4095  0.051982318 
  248000    983.16558   -11041.641   -10736.766    6547.2971  0.050386981 
  249000    1017.9102   -11052.395   -10736.746    6580.6752  0.053805261 
  250000    994.44047   -11045.143   -10736.771    6612.5741   0.05213482 
Loop time of 57133.7 on 1 procs for 200000 steps with 2400 atoms

Performance: 0.302 ns/day, 79.352 hours/ns, 3.501 timesteps/s
93.5% CPU use with 1 MPI tasks x 1 OpenMP threads

MPI task timing breakdown:
Section |  min time  |  avg time  |  max time  |%varavg| %total
---------------------------------------------------------------
Pair    | 56989      | 56989      | 56989      |   0.0 | 99.75
Neigh   | 116.84     | 116.84     | 116.84     |   0.0 |  0.20
Comm    | 12.965     | 12.965     | 12.965     |   0.0 |  0.02
Output  | 0.006324   | 0.006324   | 0.006324   |   0.0 |  0.00
Modify  | 10.584     | 10.584     | 10.584     |   0.0 |  0.02
Other   |            | 4.203      |            |       |  0.01

Nlocal:        2400.00 ave        2400 max        2400 min
Histogram: 1 0 0 0 0 0 0 0 0 0
Nghost:        5176.00 ave        5176 max        5176 min
Histogram: 1 0 0 0 0 0 0 0 0 0
Neighs:         0.00000 ave           0 max           0 min
Histogram: 1 0 0 0 0 0 0 0 0 0
FullNghs:      280600.0 ave      280600 max      280600 min
Histogram: 1 0 0 0 0 0 0 0 0 0

Total # of neighbors = 280600
Ave neighs/atom = 116.91667
Neighbor list builds = 8202
Dangerous builds = 0

#------------------------------------------
# thermal conductivity calculation
fix             3 all thermal/conductivity 10 z 20

variable start_time equal time
variable kappa equal (f_3/(time-${start_time})/(lx*ly)/2.0)*(lz/2.0)/f_ave
variable kappa equal (f_3/(time-250)/(lx*ly)/2.0)*(lz/2.0)/f_ave

fix             ave all ave/time 1 1 1000 v_tdiff ave running
thermo_style    custom step temp epair etotal f_3 v_tdiff f_ave

run 200000
Per MPI rank memory allocation (min/avg/max) = 4.495 | 4.495 | 4.495 Mbytes
Step Temp E_pair TotEng f_3 v_tdiff f_ave 
  250000    994.44047    -11045.14   -10736.769            0   0.05213482   0.05213482 
  251000     1035.757   -11057.966   -10736.783    31.905784  0.047000243  0.049567532 
  252000    1008.5883   -11049.566   -10736.808    64.229636  0.050703526  0.049946196 
  253000    1001.0581   -11047.208   -10736.785    96.888766  0.049497881  0.049834117 
  254000    1010.5583   -11050.139    -10736.77    131.09915  0.054386936  0.050744681 
  255000      1008.87   -11049.624   -10736.778    163.21173  0.051395586  0.050853165 
  256000    1015.0072   -11051.547   -10736.798    195.98779  0.053263789   0.05119754 
  257000    1014.8692   -11051.512   -10736.806    229.29768   0.04869346   0.05088453 
  258000    983.95302   -11041.914   -10736.795     264.4107  0.057546248  0.051624721 
  259000    1006.5862   -11048.934   -10736.796    297.61206  0.052362304  0.051698479 
  260000    994.60094   -11045.209   -10736.788    328.20922  0.052347933  0.051757521 
  261000    982.65561   -11041.518   -10736.801    361.68282  0.050071407  0.051617011 
  262000    985.36363   -11042.338   -10736.781    392.80774  0.052391229  0.051676566 
  263000    999.52662   -11046.751   -10736.803    426.09644  0.040719856  0.050893944 
  264000    987.04147   -11042.882   -10736.805    460.96947  0.046784742  0.050619997 
  265000    978.90532   -11040.348   -10736.794    493.96315  0.047979186  0.050454947 
  266000    974.93035   -11039.112   -10736.791    528.48162  0.048148153  0.050319253 
  267000    987.29695   -11042.955   -10736.799    560.61346  0.045886625  0.050072996 
  268000    981.93841   -11041.275   -10736.781    595.33006  0.047059984  0.049914416 
  269000    1016.0402   -11051.866   -10736.797     629.5483  0.052552116  0.050046301 
  270000    1002.1552   -11047.547   -10736.783    664.00114  0.049123829  0.050002374 
  271000    997.48283   -11046.095    -10736.78    697.31623  0.048130537  0.049917291 
  272000     1008.513   -11049.535     -10736.8    728.53818   0.05467298   0.05012406 
  273000    998.21453    -11046.33   -10736.789    759.66241  0.053919989  0.050282223 
  274000    1007.8677   -11049.341   -10736.806    792.30272  0.053896065  0.050426777 
  275000    1000.0877   -11046.899   -10736.777    825.29424  0.053916155  0.050560984 
  276000    998.13417   -11046.323   -10736.807    857.47943  0.052980347   0.05065059 
  277000    1014.1336   -11051.273   -10736.796    889.26778  0.052188392  0.050705511 
  278000    996.76601   -11045.887   -10736.794    922.58375  0.052098955  0.050753561 
  279000    993.63689   -11044.909   -10736.787    954.78926  0.053375259  0.050840951 
  280000    992.34344   -11044.525   -10736.805    988.14753  0.053131093  0.050914827 
  281000    1008.1758   -11049.443   -10736.813    1017.7236  0.055786343  0.051067062 
  282000    1000.1192   -11046.933   -10736.801    1050.9673  0.051926462  0.051093104 
  283000    989.18915   -11043.539   -10736.796    1084.1674  0.052367047  0.051130573 
  284000    1009.9426   -11049.979     -10736.8    1117.1626  0.046727575  0.051004773 
  285000    1007.6364   -11049.269   -10736.805    1151.9169  0.047122144  0.050896922 
  286000    983.04374    -11041.63   -10736.793    1184.2706  0.051350408  0.050909179 
  287000    1005.7848   -11048.683   -10736.794     1218.058  0.050240732  0.050891588 
  288000    1020.6735   -11053.309   -10736.803    1251.1701  0.050556112  0.050882986 
  289000     1023.875   -11054.315   -10736.817    1285.5345  0.049546452  0.050849573 
  290000    976.41536   -11039.573   -10736.792    1316.5388  0.053156161  0.050905831 
  291000    995.74317   -11045.575     -10736.8    1347.8796  0.051909719  0.050929733 
  292000    993.12056   -11044.758   -10736.796    1381.1511  0.055548052  0.051037136 
  293000    998.99445   -11046.589   -10736.806    1412.8596  0.050650641  0.051028352 
  294000    1003.6572   -11048.028   -10736.799    1445.6095  0.045682558  0.050909556 
  295000    1005.0507   -11048.459   -10736.798    1478.8959  0.050769314  0.050906508 
  296000    992.53973   -11044.588   -10736.806    1512.1331  0.046322347  0.050808972 
  297000    995.11088   -11045.393   -10736.814    1546.7309  0.047922902  0.050748846 
  298000    996.07753   -11045.685   -10736.806    1580.9982  0.050928137  0.050752505 
  299000    1003.0572   -11047.856   -10736.813    1612.9109  0.051957323  0.050776601 
  300000    1010.0894   -11050.026   -10736.803    1647.9244  0.046121211  0.050685319 
  301000    1017.0661   -11052.194   -10736.807    1680.7971  0.053722291  0.050743722 
  302000    1003.8046   -11048.093   -10736.818    1713.2119  0.053198953  0.050790047 
  303000    1013.5132   -11051.094   -10736.808    1743.3301  0.048897711  0.050755004 
  304000    992.98708   -11044.717   -10736.796    1776.0865   0.04819015   0.05070837 
  305000    1010.3156   -11050.092   -10736.798    1807.0691  0.055356416  0.050791371 
  306000    1015.8997   -11051.843   -10736.817    1838.6887   0.05134871  0.050801149 
  307000    1004.9791   -11048.445   -10736.806    1870.5321  0.051863306  0.050819462 
  308000    1001.7039   -11047.443    -10736.82     1903.377  0.052160276  0.050842188 
  309000    984.80888   -11042.179   -10736.794    1936.6057  0.051920137  0.050860154 
  310000    1015.3316   -11051.659    -10736.81    1969.9287  0.048317381  0.050818469 
  311000     1014.658   -11051.433   -10736.792    2002.2026  0.051629597  0.050831552 
  312000    999.44832   -11046.748   -10736.824    2038.1186  0.050606406  0.050827978 
  313000    992.57763   -11044.604    -10736.81    2068.5897  0.051227019  0.050834213 
  314000    1003.1389   -11047.878   -10736.809    2100.1574  0.051827697  0.050849497 
  315000    1009.7733   -11049.931   -10736.805    2133.8824  0.046965671  0.050790651 
  316000    988.75094   -11043.419   -10736.812    2167.4841  0.051159318  0.050796154 
  317000    984.23516   -11042.005   -10736.798    2201.6509  0.049655629  0.050779381 
  318000    1023.5933   -11054.228   -10736.816    2231.7122  0.057088648   0.05087082 
  319000    996.74355   -11045.887   -10736.801    2264.4481  0.049308778  0.050848505 
  320000    989.38463   -11043.629   -10736.826    2297.9035  0.045251395  0.050769673 
  321000    985.13388   -11042.284   -10736.799    2329.8502  0.052832275   0.05079832 
  322000    1008.5469    -11049.55   -10736.804    2362.7332  0.051358156  0.050805989 
  323000    1011.0458   -11050.338   -10736.818    2396.8118  0.048114971  0.050769624 
  324000    1025.5706   -11054.822   -10736.798    2430.3909  0.047729404  0.050729087 
  325000    989.11034   -11043.524   -10736.806    2464.1888  0.045397092   0.05065893 
  326000    1014.6974   -11051.471   -10736.818    2495.9309   0.05268718  0.050685271 
  327000    1005.7397   -11048.693   -10736.818    2528.5714  0.051220082  0.050692127 
  328000    1001.5565   -11047.379   -10736.801    2559.9459  0.051692966  0.050704796 
  329000    1012.3139   -11050.727   -10736.813    2594.8324  0.046871867  0.050656884 
  330000    999.46982   -11046.743   -10736.812    2627.5728  0.047427371  0.050617014 
  331000    1008.2544    -11049.46   -10736.805    2661.0698  0.048682281   0.05059342 
  332000    987.48357   -11043.027   -10736.814    2694.8598  0.047551591  0.050556771 
  333000    997.02405   -11045.955   -10736.783    2729.6472  0.051678979  0.050570131 
  334000      1019.01   -11052.783   -10736.793    2761.7885  0.045180468  0.050506723 
  335000    999.42643   -11046.722   -10736.804    2793.7712  0.054610278  0.050554439 
  336000      1019.62   -11053.001   -10736.822    2827.2399  0.049845191  0.050546286 
  337000    1014.5745   -11051.426   -10736.811    2861.4269  0.050135811  0.050541622 
  338000    1001.1604   -11047.272   -10736.818    2893.8853  0.048567135  0.050519437 
  339000     1026.142    -11055.01   -10736.808    2927.5489  0.053385601  0.050551283 
  340000    1009.8349   -11049.968   -10736.823    2959.4685  0.049298569  0.050537517 
  341000    1010.0027   -11050.008   -10736.811    2992.9958  0.047405472  0.050503473 
  342000    995.49645    -11045.53   -10736.832    3024.8206  0.046899388  0.050464719 
  343000    995.53431   -11045.525   -10736.815     3057.336  0.050514204  0.050465246 
  344000    1014.6323   -11051.466   -10736.833    3092.4854  0.049874791   0.05045903 
  345000    994.76803   -11045.286   -10736.813    3124.9101  0.055468169  0.050511209 
  346000    1008.3722   -11049.526   -10736.835    3157.1362  0.058251988  0.050591011 
  347000    1002.0354   -11047.568   -10736.842    3189.1757  0.058446266  0.050671166 
  348000    1003.6464   -11048.047   -10736.821    3224.2468  0.051207845  0.050676587 
  349000    996.60723    -11045.87   -10736.827    3258.6326  0.047698934  0.050646811 
  350000    991.56901   -11044.305   -10736.824    3291.1899  0.052991643  0.050670027 
  351000    1016.8695   -11052.163   -10736.837    3324.4145  0.051417362  0.050677354 
  352000    1006.6133    -11048.97   -10736.824    3355.1321  0.056584421  0.050734704 
  353000     990.5345   -11043.989   -10736.829    3386.9875  0.058086112  0.050805391 
  354000    1015.0151   -11051.578   -10736.827     3419.259  0.054545956  0.050841015 
  355000    1007.9624   -11049.379   -10736.815    3454.3178  0.051029887  0.050842797 
  356000    986.81564   -11042.817   -10736.811    3485.4143  0.053889535  0.050871271 
  357000    1007.3857   -11049.219   -10736.833     3519.289   0.05427096   0.05090275 
  358000    1009.9032   -11050.009   -10736.843     3552.822   0.04933404  0.050888358 
  359000    1008.4215   -11049.558   -10736.851    3585.5837  0.048434077  0.050866046 
  360000    983.02888   -11041.677   -10736.844    3619.9423  0.051102931   0.05086818 
  361000    1000.7913   -11047.175   -10736.834    3653.4513  0.051503406  0.050873852 
  362000    988.63007   -11043.397   -10736.828    3686.7755  0.049093928    0.0508581 
  363000    1011.4211   -11050.482   -10736.846    3722.1264  0.046815529  0.050822639 
  364000    1014.7525   -11051.517   -10736.847    3754.5453  0.053216844  0.050843458 
  365000     1011.669   -11050.559   -10736.845    3788.4293  0.048968645  0.050827296 
  366000    1002.6239   -11047.774   -10736.866    3820.6941  0.049842429  0.050818879 
  367000    997.28827   -11046.104   -10736.849    3851.7075  0.050758204  0.050818364 
  368000    1021.0618   -11053.484   -10736.858    3884.3244  0.049713374  0.050809079 
  369000    1016.3611   -11052.018   -10736.849    3917.7526  0.051786516  0.050817224 
  370000    1006.8748   -11049.074   -10736.847    3950.7258  0.051588263  0.050823596 
  371000    997.76292    -11046.23   -10736.829    3982.2047  0.053299299  0.050843889 
  372000    977.36772   -11039.931   -10736.854    4013.3004  0.050492215   0.05084103 
  373000    977.82144   -11040.054   -10736.836    4045.4759  0.047954814  0.050817754 
  374000    980.61669   -11040.925    -10736.84    4078.5348  0.050915569  0.050818536 
  375000    1016.8903   -11052.176   -10736.843     4113.651  0.045715599  0.050778037 
  376000    1017.5493   -11052.381   -10736.844    4148.5854  0.048435404  0.050759591 
  377000    993.41459   -11044.888   -10736.835    4182.6822  0.052125276   0.05077026 
  378000    1019.5405   -11053.017   -10736.862    4215.8305  0.055268902  0.050805133 
  379000    1009.0792   -11049.753   -10736.842    4249.1317   0.05195418  0.050813972 
  380000    996.92479   -11045.986   -10736.845     4282.119  0.053162474    0.0508319 
  381000    995.39204    -11045.51   -10736.844    4314.9447  0.052616058  0.050845416 
  382000    1001.8828   -11047.533   -10736.854    4346.7283  0.055183716  0.050878035 
  383000    995.31271    -11045.48   -10736.839    4378.4714  0.055984245  0.050916141 
  384000    1001.6809   -11047.456    -10736.84    4410.0116   0.04972486  0.050907317 
  385000    987.01648   -11042.902   -10736.833    4444.1657  0.045861374  0.050870214 
  386000    991.91479   -11044.419   -10736.831      4478.45  0.049842862  0.050862715 
  387000    977.49581   -11039.957    -10736.84    4512.1736  0.050300119  0.050858638 
  388000    1006.3999   -11048.911   -10736.831    4543.4367  0.053798126  0.050879786 
  389000    980.20744   -11040.774   -10736.817    4575.6708  0.051285783  0.050882686 
  390000     1021.494   -11053.619   -10736.859    4609.7818  0.046660748  0.050852743 
  391000    1004.8167   -11048.427   -10736.838    4643.8041  0.049034888  0.050839941 
  392000    1027.9945   -11055.626    -10736.85    4676.7865  0.045802066  0.050804711 
  393000    986.89587   -11042.862   -10736.831    4710.3109  0.049672723   0.05079685 
  394000    988.06665   -11043.239   -10736.845    4745.5849  0.048483009  0.050780893 
  395000    1012.1773   -11050.729   -10736.857     4777.888  0.046332382  0.050750424 
  396000    1004.6534   -11048.367   -10736.829    4811.4899  0.047156724  0.050725977 
  397000     983.8495   -11041.911   -10736.824    4844.7546  0.046479937  0.050697287 
  398000    984.40538   -11042.108   -10736.849     4878.326  0.051458476  0.050702396 
  399000    1018.9609   -11052.818   -10736.844    4911.6369  0.051772389  0.050709529 
  400000    1001.0991   -11047.294   -10736.858    4944.5284  0.053528593  0.050728198 
  401000    1016.7175   -11052.146   -10736.867    4976.9188  0.052531391  0.050740061 
  402000    991.75487    -11044.37   -10736.832    5011.2381  0.052768314  0.050753318 
  403000    1002.0198   -11047.568   -10736.847    5046.3727  0.045361882  0.050718309 
  404000    978.51407   -11040.266   -10736.833    5079.0755  0.046925018  0.050693836 
  405000    1010.9285   -11050.331   -10736.847    5111.7076  0.049965437  0.050689167 
  406000    1018.9262   -11052.809   -10736.845    5145.5986  0.055471903   0.05071963 
  407000    976.95249   -11039.786   -10736.838    5178.3512  0.048958789  0.050708485 
  408000    1007.4195   -11049.245   -10736.849    5211.6142  0.054309856  0.050731135 
  409000    992.80375   -11044.699   -10736.836    5243.2285  0.053512273  0.050748518 
  410000    997.95084   -11046.312   -10736.853    5275.9364  0.054512873  0.050771899 
  411000    1026.7606   -11055.247   -10736.854    5308.9825  0.051237028   0.05077477 
  412000    1016.3042   -11052.024   -10736.873    5342.1756  0.049547478   0.05076724 
  413000    1016.7184   -11052.143   -10736.863    5374.8037  0.044431846   0.05072861 
  414000    986.18026    -11042.68    -10736.87    5407.7397  0.048115389  0.050712772 
  415000    989.14563   -11043.585   -10736.856    5442.1538  0.052614319  0.050724227 
  416000    999.34652   -11046.746   -10736.854    5477.2467   0.04819383  0.050709075 
  417000    1000.2052   -11047.026   -10736.868    5510.6358  0.050918791  0.050710324 
  418000    1005.2046   -11048.568   -10736.859    5544.4882  0.055926308  0.050741187 
  419000    995.58083   -11045.609   -10736.885    5576.9037   0.05269698  0.050752692 
  420000    1001.9448   -11047.578    -10736.88    5610.6698  0.053070094  0.050766244 
  421000    1005.7115   -11048.742   -10736.876    5644.4841  0.051073145  0.050768028 
  422000    1013.6458   -11051.205   -10736.878    5675.1608  0.052412998  0.050777537 
  423000    1000.7994    -11047.24   -10736.897    5708.7676  0.049825052  0.050772063 
  424000    1023.5759    -11054.29   -10736.884    5742.8549  0.045650153  0.050742795 
  425000    1000.6134    -11047.18   -10736.894    5776.3917  0.044542438  0.050707566 
  426000    1001.1639   -11047.332   -10736.876    5810.1076  0.043178099  0.050665026 
  427000    991.87103   -11044.454    -10736.88    5843.8656  0.048579854  0.050653312 
  428000    1008.8819   -11049.741   -10736.892    5876.9197  0.051947023  0.050660539 
  429000    1006.0019   -11048.841   -10736.885    5910.9278  0.052605245  0.050671343 
  430000    1007.9101    -11049.44   -10736.892    5945.8199  0.047712861  0.050654998 
  431000    1011.1201   -11050.442   -10736.899    5980.4426  0.050843435  0.050656033 
  432000    1006.9584    -11049.11   -10736.858    6014.7671  0.047330432  0.050637861 
  433000     987.8429   -11043.199   -10736.874    6047.9251  0.046382771  0.050614735 
  434000    994.23291   -11045.202   -10736.895    6082.3362  0.053002683  0.050627643 
  435000    992.06321   -11044.513   -10736.879    6116.0239  0.055868048  0.050655817 
  436000    1008.0905   -11049.495   -10736.891    6149.0904  0.051003777  0.050657678 
  437000    1009.3096   -11049.861   -10736.879    6182.4616  0.053106619  0.050670704 
  438000    1004.5533   -11048.377    -10736.87    6215.0612  0.057124145  0.050704849 
  439000    992.57404   -11044.646   -10736.853    6246.2623  0.055624935  0.050730745 
  440000    991.15603    -11044.21   -10736.857    6277.7769  0.053006481  0.050742659 
  441000    992.52787   -11044.626   -10736.848    6310.1683   0.04987836  0.050738158 
  442000    1006.5521   -11048.982   -10736.856    6342.8484   0.04701521  0.050718868 
  443000    1022.1151   -11053.814   -10736.862    6374.9705  0.050566404  0.050718082 
  444000     1000.727   -11047.173   -10736.852    6408.8676  0.055963903  0.050744984 
  445000    997.26994   -11046.117   -10736.869    6440.3492  0.060349902  0.050793988 
  446000    1007.4206   -11049.247   -10736.851    6472.6376  0.051388754  0.050797008 
  447000    1019.8361   -11053.104   -10736.857    6505.7598  0.051812089  0.050802134 
  448000    1009.5742   -11049.912   -10736.848     6536.939  0.054676777  0.050821605 
  449000    1017.2284   -11052.297   -10736.859    6571.8083  0.049845395  0.050816724 
  450000    1010.8111   -11050.317    -10736.87    6604.4055  0.052026397  0.050822742 
Loop time of 55372.3 on 1 procs for 200000 steps with 2400 atoms

Performance: 0.312 ns/day, 76.906 hours/ns, 3.612 timesteps/s
95.3% CPU use with 1 MPI tasks x 1 OpenMP threads

MPI task timing breakdown:
Section |  min time  |  avg time  |  max time  |%varavg| %total
---------------------------------------------------------------
Pair    | 55226      | 55226      | 55226      |   0.0 | 99.74
Neigh   | 118.38     | 118.38     | 118.38     |   0.0 |  0.21
Comm    | 13.097     | 13.097     | 13.097     |   0.0 |  0.02
Output  | 0.0056891  | 0.0056891  | 0.0056891  |   0.0 |  0.00
Modify  | 10.905     | 10.905     | 10.905     |   0.0 |  0.02
Other   |            | 4.237      |            |       |  0.01

Nlocal:        2400.00 ave        2400 max        2400 min
Histogram: 1 0 0 0 0 0 0 0 0 0
Nghost:        5235.00 ave        5235 max        5235 min
Histogram: 1 0 0 0 0 0 0 0 0 0
Neighs:         0.00000 ave           0 max           0 min
Histogram: 1 0 0 0 0 0 0 0 0 0
FullNghs:      280470.0 ave      280470 max      280470 min
Histogram: 1 0 0 0 0 0 0 0 0 0

Total # of neighbors = 280470
Ave neighs/atom = 116.86250
Neighbor list builds = 8212
Dangerous builds = 0
print           "Running average thermal conductivity: $(v_kappa:%.2f)"
Running average thermal conductivity: 10.14

write_data	Therm_${Tsim}_restartpoint.lammps
write_data	Therm_1000_restartpoint.lammps
System init for write_data ...

Total wall time: 35:56:48
