LAMMPS data file via write_data, version 29 Sep 2021, timestep = 450000

2400 atoms
3 atom types

0 21.368189498950017 xlo xhi
0 32.052284248425025 ylo yhi
0 42.73637899790003 zlo zhi

Masses

1 18.998403163
2 6.938
3 22.989769

Atoms # atomic

124 1 3.531384185556597 1.1937023072260007 0.20533161931912874 1 0 0
449 1 1.2118400840354742 1.0416792404186295 3.1174310746812965 1 2 0
751 2 2.5835560602944754 1.9504244846039138 1.8837111388539687 0 0 0
1097 3 5.505270995663499 1.490910925716124 1.2332876646439148 1 1 0
1846 1 5.867573058289968 31.63419914376145 0.5474492942029522 -1 -1 1
1910 1 5.254334553201637 3.6507424638643315 0.2649098960734162 0 1 2
1065 2 3.6987698877510633 2.253875839178203 4.485872220906092 3 0 1
1530 1 4.169785588073065 1.7470998834814613 3.0696848120275577 0 1 1
2330 1 7.589315363730992 1.70782171239846 2.109092029362097 0 1 1
800 3 8.36267963208348 31.61210699845166 0.6175120796784697 1 -1 1
131 1 10.547192476522044 2.4622491853622304 2.135006675737093 1 0 0
1683 2 9.278364881472731 2.9018758542873506 0.82968006260629 1 0 1
1281 2 9.664838982231588 1.2254696130117049 3.0719650412209267 0 0 0
95 3 12.430601536406252 3.3042563995618788 2.789885167831587 0 1 0
310 1 14.38426804677469 2.651569834554355 2.7836492638991075 0 1 0
1130 1 16.545463519734415 2.855785916661792 1.5479426576438007 1 1 0
2058 2 15.87528364109595 2.363169279259858 3.480249765247733 -2 1 0
442 1 16.922931296007107 0.6535479026956301 2.837007775596854 0 1 0
183 2 1.7470348281915709 4.447177797400841 0.5036904112441051 0 0 -1
1903 1 19.952782137086302 2.234781571113078 2.9411899762177103 -1 0 1
1487 2 20.662920830709638 1.338778433453864 1.4168995417862362 -1 2 1
1673 2 18.23182986080106 2.2750479873236964 2.9423302852557205 -1 1 1
986 2 19.61005189478193 0.6164646441577957 4.558161903426396 3 0 0
1337 1 0.08133241944684252 4.402448281634845 3.7566556476042288 -1 0 0
2296 3 20.99687684568062 6.173112074768922 2.738266363596947 -1 1 1
438 1 1.6189504528988536 8.130494713752315 42.34130161578259 0 0 -1
1259 2 0.7051724257632037 6.589073693509231 42.127294954246125 -1 0 -1
1697 3 3.1127391394899226 6.903965219143047 0.7979435145225274 1 1 0
2111 1 5.041032719456958 6.13418175099068 1.856506118153152 0 0 1
367 2 4.412194883450692 4.574584266980218 1.5309378221977015 0 0 0
620 1 2.7110956044614545 3.9319050690587973 1.7609508346828373 2 0 0
233 1 7.745149645703249 4.502100441442914 1.4688791295310546 0 0 1
172 2 8.17733259208818 6.503276021796108 2.580033171064387 -1 1 0
870 2 6.031172280745503 6.4166872721086525 0.317581904869395 -3 0 1
170 2 10.53632975123629 5.510681311760668 2.132856380786556 -1 0 0
1848 1 9.778485854106933 7.110184648248648 1.6748701382609594 -1 0 1
840 1 9.553350814113148 5.362986043461668 3.7232745470772493 0 0 0
910 1 12.37999473121032 5.430104884945098 2.302618360000883 -1 0 1
85 2 15.1324454597322 3.730178156336408 1.3280980947770045 1 0 0
162 2 15.777419873996958 6.0930446604875295 42.55095432887478 -1 0 -1
2105 1 15.818446358616328 5.817859773482783 1.7091580095544703 0 0 1
69 2 13.706653601725595 6.498161888027423 2.6045912265238917 -2 -1 -1
2260 2 18.230659205459762 7.533320497394682 40.99706481019364 -2 1 0
1522 1 0.08576050363444855 5.337151877251217 0.7796641124495922 -1 0 1
1480 2 19.459660811455414 6.510530112502558 0.49922275034982977 -3 0 1
1905 1 19.22522227706185 4.92772915831334 1.9292465583394343 1 1 1
2275 2 0.9918127579859598 9.517075913754905 0.6843456121212579 0 -1 0
2043 1 1.810470488749992 11.232415146714656 0.7950521130815887 1 1 1
1170 2 1.5102385514428858 8.402269423142865 3.216974666847627 2 1 0
2312 1 0.4246779076526114 7.944456815395968 2.015594752510025 0 1 0
1573 2 4.2147379965675915 11.097111699453457 4.623908445138025 1 1 1
333 1 7.122485228392638 7.872990204064023 0.3020109483890728 0 0 0
2368 2 3.354269450236966 10.579356828337422 1.1401602841652672 1 1 1
303 1 4.385966745322546 9.062415135716714 1.3408472981451154 1 0 0
2018 1 4.231677550939619 11.800055836813003 41.859644658910405 -1 0 -1
500 3 9.059475881545351 8.88551499697509 1.7392341047445163 -2 1 0
1228 1 14.194989946286828 8.361032211085913 2.8526134361604316 0 -1 1
1961 2 11.172762632339463 8.17769588187723 0.6087630003080177 2 -1 2
931 1 16.277153913695777 7.859070530083235 0.14294207064192788 0 1 0
1900 3 15.87417650296807 11.13016661240495 2.4280737693710956 -1 0 1
584 2 17.064980291451814 7.59315551633044 1.6380023369634376 -1 1 1
1505 1 17.755381849339585 10.22436993029498 1.8095393174527339 -1 2 1
466 2 14.540602173922748 9.154724090711932 1.0750530652542098 -1 1 1
407 1 20.659648041190433 10.441512614831385 0.425443137316596 1 0 1
248 1 18.98225653485579 7.707402498344685 1.9301698635765259 -2 0 1
1397 3 20.235919875856425 9.376217323234957 2.461865116309173 3 0 0
281 2 2.700136657160215 12.835713675474675 0.8680793242700855 1 1 0
2354 2 0.15515315050421363 11.893434229190458 1.0407063661716118 2 0 1
439 1 4.252711085847173 11.856577962210869 2.040206667339968 0 1 0
2045 1 1.2291684559823937 13.29352499593052 1.8883987936886342 2 0 0
2124 1 2.439449445084966 14.56858388686746 42.109873751363786 1 0 0
300 3 5.336052565903798 13.532615460768039 3.3398292915714305 0 0 0
208 1 6.523755477021185 13.739219249367425 1.3990789435300766 -1 1 0
2167 2 5.876152612185397 12.607925097787632 0.12872440729439444 2 -1 1
1935 1 8.476660807624075 10.957794694080091 2.3968230577116305 0 0 1
1610 1 8.952242920784968 13.65774432895563 0.8473205008638187 1 0 1
1677 2 8.278802103516114 12.901689138416037 2.465742844998193 -1 1 1
592 3 6.398028573037397 10.196214978665388 1.8507625716677207 -2 0 0
1797 3 8.995263790195532 11.627426616676662 0.38786996042818866 0 2 1
1463 2 11.455009717435654 11.321642437598504 2.601453883411847 1 0 1
2014 1 11.313459322076348 11.53144763512754 0.8399487779035198 0 0 1
1160 2 12.928385796094974 14.313449359816296 3.181277983051212 -3 1 1
2104 1 13.751570953186397 13.705924867045502 1.6902896846830744 -1 0 1
1377 2 12.926899777670014 12.068628392873617 1.0502228825674673 -2 1 1
905 1 10.922074739003257 13.096522466044167 3.487337915318088 0 0 0
908 1 13.346564479809194 11.36028360389238 2.845439474423201 -2 1 0
1578 2 17.645124649729738 10.080502287007082 0.04783582539341154 3 0 0
926 1 16.55514533961339 13.144648051479535 2.318229151096118 -1 0 0
1931 1 14.576251716265205 10.856910822430628 0.6434161160736219 0 0 1
1029 1 19.629645168944155 12.272228195117178 2.6074363940331886 -1 2 0
562 2 18.783033615047803 13.038026153825951 1.0967898966386074 1 -1 1
2188 2 3.4460116153940343 15.827048160196794 0.1650789137128076 0 -1 0
504 1 4.312143690711937 15.457492477758409 1.70865311869506 0 0 0
1655 2 0.2826301384716669 17.157364418908145 42.63973368703576 -1 1 0
2244 1 7.2903027748544 16.202674541810712 0.7582944047151973 0 0 1
1072 2 5.838629837885854 15.403130151775892 0.08504613814096904 1 0 0
1776 2 5.90738660168651 16.382484919499493 2.337235750007842 1 0 1
167 2 8.693198474317619 17.422684813475755 1.3670161938374463 -2 0 0
1643 1 9.35971385640001 15.997840006107278 2.2670495980495224 0 1 0
871 2 10.584077548941167 14.861512604523352 3.366885655102755 0 -1 1
2332 1 10.020831788233377 18.099062287093993 0.2474062117321789 -2 0 1
1153 2 7.961613476410792 15.027128299193361 1.9709889612616416 -1 -1 1
1596 3 13.706689703243685 17.091525389841454 3.0696562264429095 0 1 1
994 3 11.758174182091489 14.435668644426109 0.2947991930120751 0 0 0
108 1 12.017842489105824 15.766285936644252 2.710462016871533 0 0 0
794 3 12.82866678269987 17.624057650023747 42.19959778192485 2 0 -1
218 1 15.66163558819709 14.017232883816316 42.04480152403868 -2 1 -1
340 1 15.427577600369784 15.94848194340313 1.7773897334723772 0 0 0
1265 2 16.27109764975594 17.48202138898559 2.3495902569551337 1 -1 1
779 2 15.359852015898062 13.902204732857017 1.0487930695880205 -1 -1 0
397 3 16.630662590020528 16.134265673666803 42.560377538438836 1 0 -1
492 3 3.099383606591184 16.662096025854957 3.0212266765853135 -1 0 0
648 1 18.811971961161408 14.970752983445356 1.2379258893850604 -1 0 1
1828 1 20.27014020895836 17.59064239104594 1.526704595552191 -1 0 1
998 3 21.350367860082077 14.895956958977107 2.323692866913387 0 -1 1
549 1 1.9924096066390606 17.252382983686296 0.7223494094041267 2 0 0
198 3 3.3981007766429365 18.75231784441215 0.9473451140415053 1 -1 1
1464 2 0.2889182385976037 21.06319389659915 0.36138564453062333 -1 0 -1
1408 1 5.134556834660318 19.70691912291786 0.07279000060199467 1 0 1
210 1 7.798106310585228 18.274191175086525 2.5786824693652868 -1 -1 1
483 2 4.404779893312685 19.730212367190475 3.775271763729623 -1 1 0
2223 1 6.320464496024437 20.902511825985883 3.6570721322427615 -1 0 1
1876 2 4.643389236214784 18.956962863677454 41.18362282667017 -1 0 1
1799 3 9.417030516960436 20.175986791843723 3.6830222438248224 1 1 1
2144 1 7.8924973292187115 20.003999863781644 42.62265237994813 0 1 0
256 2 9.71425958061093 19.738414614518508 42.033751602914315 -2 0 -1
768 2 11.049903516472968 17.53733055886576 2.3356618044684794 0 1 0
1818 1 15.408683800720523 18.95030595694413 2.695241267665647 -1 0 1
277 2 12.213764645460346 20.37382341792946 0.60120934134899 0 1 0
1501 1 12.334864255485924 18.558173458083566 1.598329384815669 2 0 0
701 1 15.671701735482559 21.736318632244995 4.799289546855976 -1 0 0
1674 2 15.105242341147381 19.411837429202574 0.728206637539268 -2 0 1
26 1 16.529372410610954 20.498176014769165 0.33871479668611515 -1 -1 0
609 1 17.66158426062167 17.559527101434732 0.7579179704503333 0 0 0
1676 2 16.95963322859951 19.75751946598241 3.2137728668624086 -2 -1 1
2274 2 17.220533890663432 19.13548439431894 41.747111986300276 -1 0 0
1036 1 0.06425166680133254 20.572667329690983 2.2008584918860867 1 0 0
1869 2 18.9412677937559 18.810268959652237 0.9244078203132104 1 0 0
1283 2 18.617454655241833 16.43392174552367 1.802756995578135 0 -1 0
653 2 19.738562042876843 20.793870441373752 3.112017319321793 0 -1 0
726 1 21.06879449098973 18.489155836700917 41.40389787493588 -2 0 -1
1911 1 18.831430680757148 19.643632680951622 42.066414242623054 -3 -2 0
1121 1 2.1206009468093985 23.08892723761873 2.160787991528166 0 0 1
1594 3 2.865459631740383 25.06205622512213 1.488391072557941 2 -1 1
1077 2 3.1319785499761115 21.813294443554877 1.2757746811433395 0 1 0
505 1 4.108271124225564 22.91392193584407 0.17820554711154285 1 0 0
951 2 5.348548229899307 23.81620773977188 1.174987947371469 1 0 0
440 1 3.8389155216171718 20.948125267888997 2.7337334762433563 1 1 0
1322 1 5.223522786297228 23.82214657155164 2.987854307018725 1 0 1
927 1 11.817595062055489 21.754886576802658 2.2501643598872954 0 1 0
862 2 8.375204906859837 21.605441490982777 0.7439585617663284 -1 0 1
235 1 8.927672730064515 22.324948185827818 2.6467253043459706 0 -1 1
460 2 10.444675496782457 22.89456254578181 2.177194950166292 -1 0 -1
1966 2 7.573422841173112 23.354731167671094 2.6616840910536963 1 -1 0
2136 1 13.761842371916085 23.750873477447012 2.361412402994209 0 0 1
98 3 16.04050860041821 22.82612206710592 42.71052648269191 -2 -1 -1
113 1 13.912288896060748 21.07474522338549 0.9060414859415374 0 0 0
2281 2 18.02205512117947 23.471090505628343 3.0847414492620477 1 -1 1
1745 1 16.199973610237812 24.033603713680662 2.8288850136083235 0 0 0
42 1 18.639028248174565 22.69167518026951 0.6227762133072291 -1 -1 0
1536 1 18.508667243613043 19.834479542319695 2.364129076988962 -1 0 0
982 2 16.704056526814774 25.483895897181508 1.4832198295115 0 1 1
966 2 0.22674584143546325 22.815219000324955 1.909131906820333 -1 -1 1
65 2 18.052881600211187 21.03587493766124 0.7162662679128781 0 0 0
1511 1 19.945940234389006 23.009365065143665 2.851576590970739 0 -1 1
1206 1 2.117716928380018 25.32117187832395 42.34043529059984 -1 -1 0
1452 2 1.1648790867695071 26.236716721857146 3.412827281352982 0 0 1
601 1 2.5201495355520374 25.27958230466402 4.11292106323766 1 -1 0
43 1 2.52719788511856 27.70037886049313 1.967011220531156 0 0 0
1461 2 4.703325413987595 27.831433240880056 0.5171161553616541 -1 -1 0
2168 2 1.8585186331029502 27.277504070457045 0.23967577012721994 0 1 1
841 1 4.921346256439739 25.67637287264111 0.9189960359898441 0 -1 1
1403 1 8.746148081382263 26.64188768590156 0.5360074539705175 -1 -1 1
1881 2 7.088187002072894 26.95282312840754 1.6377072302939666 0 -3 1
735 1 5.821822844120349 27.519806470224857 2.4545643957311283 1 -1 1
1728 1 7.472372519027555 25.023494453396935 2.4984340311880175 1 0 1
634 1 9.95632654453585 24.25902066089922 0.7967739695026242 0 0 0
487 2 8.235823243390033 24.98222074278035 42.66224084236618 -1 -1 -2
695 3 9.851791297581329 25.949842070601164 2.178461713164219 0 0 0
1266 2 12.884672084301492 23.859331370890818 3.9475143428734842 0 -2 1
872 2 12.755450119948362 25.23345990209745 0.9861965013120305 0 -1 0
2236 1 12.108248804251971 26.859139245208784 2.097740209757012 0 0 1
1687 2 13.492008561976828 27.865012956741708 0.824630806369943 -2 0 1
516 1 16.69830305075111 26.949620503927264 3.594471804997686 0 0 0
1757 2 15.183164350587946 27.998553773029702 2.79579824722377 2 0 0
343 1 15.72934597570686 24.90995530490087 0.04606474280198501 0 0 1
1346 1 18.381664861762584 25.65665661067066 2.013809326298032 -1 -1 0
869 2 19.855472621507708 27.243030595637826 42.47968302649167 0 0 -1
849 1 21.249949757104254 25.58627715654609 2.4075624091306462 1 -1 1
1538 1 0.5914428923737758 29.569300843134155 2.947482114871832 2 -1 0
1773 2 1.2936887237942054 28.94449731472715 1.4467425887984835 3 0 1
219 1 1.266072411227871 30.768407487765703 0.7686458643134385 0 0 1
774 2 4.339698410496905 28.47367288427828 2.872591359314201 0 -1 1
1811 1 4.333428363026983 29.45139193268287 1.1483727921976692 0 -1 1
2100 3 6.263808296649663 31.870231117033615 2.9815241839579025 -1 -1 1
1478 2 6.303646563381952 28.649638761031753 3.7929042343945656 1 0 0
2308 1 10.717179514943167 29.02238268590586 0.7390665496425668 1 0 1
1815 1 7.458943376595938 29.667506764599054 2.1608624531643588 -1 -1 1
1553 2 9.267355211913927 29.78168376268221 2.3037522145190055 0 -1 0
1470 2 11.479114540887526 1.328388847206116 0.942306604417685 2 2 1
1488 2 11.284952561153984 28.414999898356918 2.638165360680044 0 1 0
1345 1 13.67468606126434 29.06002227952424 2.290235785613093 0 -1 0
1276 2 12.229918665235383 31.592831377810615 3.472084491935967 -2 -2 1
49 1 12.864960361035006 0.3985110407493359 1.5313358056787463 2 1 0
1178 2 14.361099144504582 1.357349355474531 1.1395834421213082 1 2 1
2171 2 13.327972247085404 29.645043830999544 4.373207298652229 0 0 0
1400 3 11.889726512448357 30.79725558457532 0.18153108754565006 1 0 1
2376 2 14.87616489481902 30.6891776349808 2.0213274081425747 0 0 1
1127 1 15.584222783992617 31.796472338411533 0.668051413426571 2 0 0
1107 1 16.436627336404957 29.728950974217398 2.7585886445671957 -3 0 1
493 3 18.04156671421586 30.516239009483993 1.6632829199131915 -2 0 0
782 2 16.05843280174446 30.868111927598793 3.991995061672793 0 0 1
469 2 0.6554505041110987 31.396423269506 2.8386038831605904 -1 1 0
2073 2 20.386576562583542 29.050120933672517 3.402812942751884 -1 0 1
1614 1 19.850046606905995 31.74323091743677 1.0529347773015605 -1 -1 1
142 1 19.363385510013313 28.43621857777241 1.4522403436431415 -1 -1 -1
1545 1 2.0520193623200345 2.760085974719657 5.125733689871825 0 1 0
1685 2 0.2792742044204971 2.4317359441129502 4.3890419650304136 2 0 0
2 1 3.6289543486956206 0.44364711896581227 5.8582484427969375 0 0 0
1870 2 4.62165034937324 4.183995810989279 6.280388459113469 -1 0 1
1694 3 7.194247695419815 1.727485102411454 5.515807523383683 2 1 2
246 1 9.184412722104671 1.3638320738022462 4.831638061792662 0 -1 0
679 2 10.271174805169574 0.43483647721653423 6.0059546701365125 1 -1 1
178 2 8.975269630179096 3.554097839785627 4.69827555625095 2 -1 -1
637 1 11.83991233571079 1.1219999135024334 4.581175513309071 -1 1 0
798 3 13.701742865242723 1.5655336607249393 5.477580344410854 0 0 1
510 1 11.229996099005662 0.6263649746858446 7.47341857001986 -1 1 0
1300 3 11.637780058069179 3.08318568855031 6.905576907015825 0 0 0
748 1 15.586922671012239 3.168347787914046 5.159652023420788 0 1 1
667 2 17.56221685567181 3.258711384784472 5.4653309965343855 0 0 0
1330 1 17.582713886959812 3.7983937055364136 3.817902655005614 0 1 0
1079 2 20.63462336784635 3.613569383293529 1.821616248638637 -1 1 1
22 1 18.094549691071798 1.3078793368898125 5.69675048017123 0 1 0
1222 1 19.275763494017205 3.943047901727529 6.099501249436537 0 0 1
1994 3 19.678753131071456 1.7359634241338198 7.085368876104094 0 1 1
45 1 2.6634721296106925 6.890790887549485 3.1627472210449143 0 1 -1
392 3 2.1852416033964635 4.567077687914244 3.8902116476074657 0 0 -1
1843 1 0.6583803274317982 7.7937830228470295 4.773193330557872 1 0 1
1917 1 3.451458258534682 5.31468256045494 5.545091504453081 1 0 1
1100 3 7.465038352442749 5.656909401167887 5.8576350653191644 0 0 1
1352 2 3.029502424085054 7.355537790903671 5.2591980723897835 1 -1 1
1245 1 5.282688674449718 2.5527207448693505 5.5285368158701464 0 0 0
1790 2 6.982897942752913 3.431569402918362 2.6677048934559964 2 1 0
1154 2 10.907195960675276 7.74351765269175 7.535353871795152 1 0 1
629 1 7.420360639320576 4.010032950214263 4.3593369273373455 0 0 0
1041 1 9.702507132867192 3.945778860359582 6.359241321755942 0 1 0
186 2 11.195771453118388 5.31668652221002 5.061562895123554 0 0 1
2004 1 12.77584053639088 3.89309716232678 5.166709175457511 -1 0 1
436 1 11.490788585142875 7.279728686088324 4.875955989481983 1 0 -1
1359 2 13.284164411260017 7.667189390891585 5.3174466212446445 1 1 1
556 2 14.288776403633216 4.37666954462974 4.5878674280282254 0 1 1
2132 1 14.045207883814275 6.171312699875629 4.434037305707706 -1 1 1
2190 2 17.4622897615852 5.442178678620708 2.976249163683473 0 1 1
978 2 15.820251907908773 6.684116459002036 5.038336767337249 1 2 0
1225 1 19.729549424116257 6.305632646121826 4.483486243519312 -1 0 0
1883 2 19.727630027193968 4.606328420609608 4.3923342872701845 -1 0 1
406 1 16.30613075663754 5.633237939097719 6.471012453462582 -1 0 0
1280 2 17.516259581812598 8.42294943461089 7.182896415764148 -1 -1 0
1207 1 3.3684290198593705 9.321014449257403 4.170657161096007 0 0 1
160 2 4.335794130210946 7.80386417314767 2.796035943174169 0 0 0
234 1 3.6915104976963287 8.073921798688586 6.82772704904163 0 0 0
1044 1 6.343878084406157 8.043554309760658 5.869252329726339 1 0 0
473 2 4.8051770248543955 9.745148587817527 6.7753007663921405 1 0 0
1737 1 7.416858020450586 8.198065195141877 2.846014661785708 -1 1 0
2259 2 7.112469937734039 9.08924496283164 4.278299226448611 0 1 0
109 1 8.226218454657705 6.57773071213875 7.930061082418442 1 0 0
396 3 7.973815663424396 8.79479495393932 7.249490076055782 2 1 1
1205 1 8.663083344831726 9.39027009555141 4.91987016305773 0 1 0
2154 2 12.947885456707297 9.56373390646786 3.3187906002724756 1 1 1
507 1 11.163331986538951 9.27964197199522 2.9982555439611622 -1 1 0
44 1 10.575254996840378 9.546249049035746 6.921641635710095 1 0 0
1968 2 10.648793170948673 8.84454044295923 4.617302878465868 -1 -1 0
1534 1 13.47547835399252 9.619237982728938 5.284581902557523 1 0 1
328 1 16.895862975288146 6.886821636621027 3.793910270448606 -1 -1 0
1076 2 15.173323580596263 9.376411852236266 4.364382005259559 0 -2 0
1919 1 16.092347127324498 8.276505233922375 5.5930881649149065 -1 -1 0
2078 2 18.640812724216325 7.355162752545082 3.831868642184198 0 -1 0
1535 1 19.005918833381692 8.679646158583258 4.908473389875363 -1 0 1
52 2 20.48191810966869 7.745837072359775 5.465905321682125 1 0 -1
1794 3 17.788440950514953 10.653072840583103 4.305159783369751 2 1 0
119 1 3.7106430685337606 13.378844776056464 4.626260762277407 1 0 0
1949 1 0.5004170604241905 10.953256031393984 3.965989392322638 1 0 1
2194 3 18.625627131167803 11.709669167580644 7.364740955433259 1 0 1
1686 2 2.004493835480188 12.809397006313823 3.765533532438176 -1 0 1
2240 1 3.3157365501519775 10.901464225064641 6.26675190832797 -1 1 0
394 3 1.5372351668323276 9.946679754252637 5.493241625944296 2 0 1
678 2 4.4423459382226005 13.016499220414019 7.042518987644645 1 1 0
1826 1 5.823294192785393 10.35035343859996 4.591811971150717 0 0 1
2323 1 6.201582037416821 13.568395701262011 6.175979271350805 0 0 1
298 3 7.008181109464433 11.576668989485803 5.9429288472458905 0 0 0
826 1 8.001950374092317 13.037569766336647 4.214587548707677 0 -1 1
1261 2 9.10652062885205 11.332525152299839 4.2311268222958445 -3 -1 0
1049 1 8.65242530994074 14.190143144811481 6.758230742105412 0 0 0
1972 2 7.431394943736885 14.563576986548743 5.535742940189919 0 -1 0
1118 1 9.807921647887227 11.781977908274945 5.79426547714495 0 0 0
2268 2 9.541707034911946 13.413466564079837 5.356374053587696 1 1 0
699 3 11.936894148138533 11.798751867834664 5.186263530380315 0 -1 0
207 1 15.634202645748521 11.09823389550602 4.577889180049109 -1 0 -1
1929 1 14.960127072597766 16.006736907006754 6.946059917513081 0 -1 0
1991 3 15.8879915455574 12.471470397030048 6.433168474708511 0 0 1
1569 2 20.71244024232188 12.37715237744713 4.032965149500187 1 -1 0
1250 1 19.197558373388055 11.985589707261115 5.5065231475493945 1 1 0
1560 2 2.660881760448939 14.844768728488084 4.919733673470476 -1 1 1
1822 1 1.1903670188540758 15.800195634423917 3.7414407013807067 0 -1 1
2069 2 1.9608793659688573 17.593620634925596 5.430066459329457 0 -2 0
2319 1 3.6898759512873007 16.323610356636298 5.645978732912285 1 1 1
893 3 5.620411071543974 17.482941588492718 5.038424260802662 -1 1 0
341 1 6.771240774323121 15.359217503013092 3.564737179768438 1 0 0
1692 3 8.42477256540565 17.618826423447 4.40288142905999 0 0 0
846 1 9.927237026598316 15.939542577605064 5.079709387855624 -1 0 0
405 1 7.310391123474383 16.473520186980416 6.317273166452075 1 0 0
1126 1 14.086710003993074 14.986383746853969 4.566804912059978 1 0 1
83 2 11.151298528512681 15.737470328008781 6.450772110048339 0 -1 -1
1857 2 14.052070364623278 16.652179947440676 5.61444154550358 -1 0 1
1068 2 16.60576580291521 16.077729873175812 5.681754085882969 -1 0 -1
1122 1 17.090993354078535 14.0951265728731 5.318207088289903 0 0 0
2047 1 15.58515237981257 17.185744981078642 4.887780670529452 0 0 1
2182 2 15.73655588006318 14.279651271917096 3.659775444932008 1 0 1
161 2 18.225559502234365 14.273380128822938 2.9419847938202954 -1 0 0
2290 2 0.19035418559862913 15.22191847290165 4.906658528463316 1 0 1
1739 1 17.69558818975632 16.631773003284863 3.2622350277280012 0 0 0
312 1 20.051857116636278 14.871617142404645 3.8360117725331038 1 1 0
187 2 19.03559733354546 14.250131019872496 5.493255998552955 -2 1 0
1042 1 0.500061836145669 16.459808683997885 6.184439127587181 1 0 0
2142 1 2.32729246770123 18.786447705671094 4.050010146482577 1 0 0
2276 2 20.048282814131237 19.938098868752675 5.220282784600395 -1 1 2
632 1 2.319041222301985 18.709212893695923 7.094732978173347 1 0 0
981 2 3.7139879651530197 18.08480150068555 8.018404503126124 1 -1 0
1215 1 0.11891444308285748 20.982582448623646 4.853307578590393 -1 -1 1
1106 1 4.981768761479843 17.9516763033499 2.858317709233646 1 -1 1
227 1 5.188821958836403 19.306363270172763 5.468343071133365 0 -1 0
950 1 12.515403659063182 17.551688308112055 5.921077570007224 3 0 -1
1731 1 8.412451707286593 19.26793179573693 5.628130277989548 -1 1 0
1979 2 7.021460051301352 18.418091831022846 7.353530349326191 0 0 2
1262 2 11.86925463443659 19.126628657714647 5.258668627844487 -2 -1 1
1831 1 10.920776214630893 18.560728968849133 3.762588579554722 2 -1 0
2091 3 12.677179522952825 20.066448505530307 3.0839029750352287 1 0 0
1914 1 10.866496570558555 21.369602261743793 4.899336652594109 -1 -1 1
1734 1 13.717847164040544 19.72750656165592 5.151518568367266 -1 0 0
262 2 15.576797103064928 18.823378324239034 5.583816488768347 0 0 0
1306 1 16.968886695392502 19.458862614173402 5.207140176610381 2 0 0
888 2 14.349427755848359 21.126929630632418 5.994395292410844 1 1 0
173 2 17.105567283547327 19.18697263398855 8.02209935346891 0 -1 0
2309 1 18.53476233870451 16.596603874152088 6.274206557353044 0 0 1
1327 1 17.688248968896055 20.930583199352657 7.521469637251937 2 0 0
1937 1 20.293242080702342 18.61616956284797 3.942411785527829 -1 0 1
1244 1 20.15870341268387 18.9610732830435 6.7630153561627635 0 -1 0
1590 2 17.98432723013463 17.796848071492622 4.757031110954769 0 0 1
157 2 21.233667157753047 18.7767277421969 2.769715760558372 -1 0 0
1258 2 1.9906889155536398 23.537669020178853 3.826935963100641 0 -2 1
356 2 1.3596148468923075 20.518722644045884 3.8529540596923266 0 0 0
1314 1 2.5304899761945383 21.215349420030602 5.059165521576423 0 0 0
759 2 3.3232399505459314 22.61212635088101 6.049374247939178 3 1 0
184 2 1.0388168083429 21.420770802733102 6.658422934915941 1 -1 0
1161 2 3.5810623926577283 20.20438110425736 6.612243928908351 2 1 0
252 2 5.145922930035019 22.192960217498673 3.809058325617721 0 1 0
655 2 6.264404108785787 20.876825978086444 5.513656759880969 0 1 1
1619 1 5.093371579531485 22.220564011757055 5.7697730371342315 1 0 1
1607 1 7.521780350340922 21.683921390409175 6.495994228108239 -1 0 -1
897 3 9.775299745672687 23.092554163598805 5.117881805011691 -1 1 0
952 2 6.19806142869352 23.443354358701903 6.6899170434849236 -1 -1 0
1433 1 8.605222180995609 25.047228922997725 6.514821186390379 0 -1 1
1659 2 11.899021271217299 21.848538372554156 6.387813097501102 -2 0 1
2042 1 13.559035277826311 21.73900897453963 7.599600451372581 1 -1 1
644 1 13.176971093169852 22.736388264666193 5.237176443690382 0 -1 0
753 2 14.768890195962602 22.668935016456857 3.5971279315234015 0 1 0
1965 2 14.862025050568736 23.061309619740285 7.749339683806696 2 -1 -1
272 2 17.203682953735996 21.25446591061415 5.807708983137198 0 0 -1
1521 1 16.446265663517114 24.593545371821953 6.067308103294881 1 0 0
1565 2 17.742227318377527 25.603745586465507 6.726488608074375 0 -2 0
762 2 0.8080511367532875 24.22838141938954 6.904509157298019 -2 0 0
1517 1 19.389829589406585 24.86677802209711 5.64704227701919 1 0 1
379 2 20.362039962823555 22.876336565413546 4.841445351367035 1 1 1
308 1 18.955767418583868 21.57899779736813 4.959567815184295 0 0 0
1358 2 19.363371552394938 20.10921509573091 9.25746922685472 1 -1 1
597 3 2.302949997131291 26.605462137752795 5.859090007391171 1 0 -1
229 1 2.412694252536682 21.5623792079164 7.916888783292507 0 0 0
1784 2 4.123467496406871 24.699934818981184 7.566393674537955 1 1 1
907 1 2.6350510302060823 23.862309861076554 6.954044026988693 1 0 0
99 3 4.973624539052788 25.616692633208984 3.962892406230351 1 0 0
896 3 8.534198047933089 26.74736603213169 4.802528674217467 0 -1 0
718 1 10.045467394619237 27.82846223749279 6.364707920949517 1 0 0
1016 1 5.301261180605006 25.234283447419443 6.290394413329842 -2 -1 1
1958 2 10.286941595937144 25.56244693295991 7.101288119310598 1 0 1
2370 2 13.198076055117824 24.49218887877259 6.289542091373752 1 1 1
344 1 11.122418632562457 24.284443007829164 3.4630625510668236 -1 0 0
2300 3 12.198301528804908 26.793170460144832 4.268045035093869 -1 0 1
906 1 14.098481253354894 25.204597980643054 4.701526448710713 0 -1 0
682 2 15.902281778491686 25.215651130954022 4.400446237384836 1 0 0
1942 1 16.772308027688975 27.307531682562004 6.5625031407674115 0 -1 0
622 1 14.518486122862933 28.020197088887517 4.853945253236548 -1 0 0
1859 2 16.346256679279435 27.98917074576907 4.928581853515404 2 -1 1
1491 3 20.267386200364232 27.327074214546208 6.670239670484686 2 -1 0
2348 1 0.23962856397810992 24.089509851824264 4.941243425046638 0 1 1
1571 2 20.366296097779106 25.215166969043477 3.9569585181126876 0 -1 1
717 1 0.642315363823397 27.41917585041263 4.849570915293307 0 0 0
381 2 18.31686712123074 27.32956762922078 2.5374194873219618 1 -1 1
702 1 19.07800120060832 27.908955155443135 4.246238828665349 -1 -1 0
236 1 0.0795490568117291 25.870973058207024 7.424170380863778 1 -1 0
506 1 3.957189306211907 27.38265140773664 4.667638595726247 2 -1 0
2180 2 1.651186890686291 0.05666840038478645 5.410807196339969 1 1 1
495 3 2.3467252729686834 28.76438041164981 4.376663949758576 2 0 0
703 1 1.5150249400364335 30.544383685812985 6.071315353040504 0 -1 1
2385 2 4.990843137120524 28.371255213488183 6.203523943863139 -1 0 0
802 1 4.842901812355163 29.89068918351295 4.004596771213008 -1 0 0
2057 2 4.823104589910475 31.132222368263058 5.633853272055179 0 0 1
146 1 5.435225211075252 29.841397977795346 7.129391252368972 0 0 0
115 1 9.923019193436023 31.79142028959072 2.087729895355764 -1 -1 1
537 1 9.61739932626231 28.383601734906687 3.4013049688415427 -1 1 0
409 1 6.968495172011316 28.193394161169056 5.408940778919071 0 0 0
1099 3 7.239589076390651 30.08704613527172 6.700148692658782 1 -1 0
639 1 6.56675164556823 31.660304664950978 5.536916357081393 -1 -1 0
839 1 9.592404068259464 30.59928746959233 6.322660139874308 1 0 0
1940 1 11.388624375171531 29.983367879012768 3.671355343554859 2 -1 1
669 2 10.538289602850039 29.312961690944736 5.226633122107657 0 -1 0
2303 1 12.328143664623205 29.422899694879032 5.874985189950564 0 0 1
915 1 15.39633251003853 0.4841841161328416 6.9496458412963555 0 0 0
1496 3 14.269414707603376 29.99861164027996 6.842567434793311 1 0 0
913 1 14.25556601249028 31.22812010392691 4.210325197980065 0 0 1
1324 1 16.85925606912912 30.162193716794878 5.473460716749788 1 -1 1
222 1 21.07975454238082 1.0123295336962705 5.609431056773889 -1 1 0
488 2 18.67768013858727 29.685922088937108 4.781304535460184 1 0 -1
1847 1 19.860986075053344 30.952069693572295 3.8210014553787355 -1 -1 0
1529 1 19.352318237943123 29.688465226954545 6.510787017170459 1 0 0
1755 2 17.33558986675836 28.905681335266486 7.335613244954951 -2 0 0
1339 1 3.3268236763992403 3.2115059762325773 7.900545795114005 1 0 1
773 2 1.5973637137211083 3.21687307569816 7.119986674082673 2 1 0
1172 2 0.8604821766469277 0.36847204502673864 8.409525548548613 1 0 0
441 1 2.226684455701301 0.7601191589626423 9.239088487057318 0 1 0
596 3 1.6854055451906607 2.7816946229155337 9.602150127051921 0 2 -2
62 2 4.517775057267713 1.5610728525680464 6.9903320685247134 -2 1 0
1086 2 5.887463315658924 1.994467945495013 9.955257460394 0 0 1
1431 1 5.640888758732272 5.313793628043772 7.6026271617932 2 0 0
560 2 9.2505082746884 5.1153676219012905 7.647679402881996 0 1 -1