LAMMPS (29 Sep 2021 - Update 2)
OMP_NUM_THREADS environment is not set. Defaulting to 1 thread. (src/comm.cpp:98)
  using 1 OpenMP thread(s) per MPI task
# lmp -in therm.lammps
# Muller-Plathe method via fix thermal_conductivity

# conda activate nequip_cuda10.1
# export CUDA_VISIBLE_DEVICES=2
#   lmp -in run_therm_1300
# nohup lmp -in run_therm_1300 > therm_1300_job.out #job =8154
# 1) Initialization
units metal
dimension 3
newton off on
atom_style atomic
boundary p p p



# 2) System definition
read_data	FLi_1300_100_startpoint.lammps
Reading data file ...
  orthogonal box = (0.0000000 0.0000000 0.0000000) to (9.0565509 9.0565509 9.0565509)
  1 by 1 by 1 MPI processor grid
WARNING: Atom style in data file differs from currently defined atom style (src/read_data.cpp:516)
  reading atoms ...
  100 atoms
  read_data CPU = 0.001 seconds
change_box all x final 0 10.633759076033458 y final 0 10.633759076033458 z final 0 10.633759076033458 remap
Changing box ...
  orthogonal box = (0.0000000 0.0000000 0.0000000) to (10.633759 9.0565509 9.0565509)
  orthogonal box = (0.0000000 0.0000000 0.0000000) to (10.633759 10.633759 9.0565509)
  orthogonal box = (0.0000000 0.0000000 0.0000000) to (10.633759 10.633759 10.633759)

#read_data	tttt.lammps
#read_data	test.lammps

# 3) Simulation settings
pair_style	nequip
pair_coeff	* * FLiNa_f_pyt10.2 F Li Na #Li F Na

# 4) NPT:
replicate 2 3 4
Replicating atoms ...
  orthogonal box = (0.0000000 0.0000000 0.0000000) to (21.267518 31.901277 42.535036)
  1 by 1 by 1 MPI processor grid
  2400 atoms
  replicate CPU = 0.001 seconds

# thermo 1
# minimize 1.00e-9 1.0e-9 1000000 10000000
# run 100


timestep .001 # fetmoseconds
variable Tsim equal 1300 # Kelvin
velocity all create ${Tsim} 12335
velocity all create 1300 12335
# dump            dump1 all custom 1 traj_${Tsim}.lammpstrj id type xu yu zu
# dump_modify     dump1 sort id


#-------------------------------------------
# 1st equilibration run
#fix 1 all nve
fix 1 all nvt temp ${Tsim} ${Tsim} $(100.0*dt)
fix 1 all nvt temp 1300 ${Tsim} $(100.0*dt)
fix 1 all nvt temp 1300 1300 $(100.0*dt)
fix 1 all nvt temp 1300 1300 0.10000000000000000555
thermo          100
run 50000
Neighbor list info ...
  update every 1 steps, delay 10 steps, check yes
  max neighbors/atom: 2000, page size: 100000
  master list distance cutoff = 7
  ghost atom cutoff = 7
  binsize = 3.5, bins = 7 10 13
  1 neighbor lists, perpetual/occasional/extra = 1 0 0
  (1) pair nequip, perpetual
      attributes: full, newton off
      pair build: full/bin/atomonly
      stencil: full/bin/3d
      bin: standard
Per MPI rank memory allocation (min/avg/max) = 3.994 | 3.994 | 3.994 Mbytes
Step Temp E_pair E_mol TotEng Press 
       0         1300   -11019.728            0   -10616.604    14920.578 
     100    1401.2938   -11071.054            0   -10636.519    16083.164 
     200    1381.6466   -11093.538            0   -10665.096    15857.666 
     300    1344.9196   -11112.069            0   -10695.016    15436.137 
     400    1301.5163   -11122.467            0   -10718.873    14937.981 
     500    1275.8217   -11131.794            0   -10736.168    14643.075 
     600    1266.0686   -11132.006            0   -10739.404    14531.134 
     700     1321.033   -11138.305            0   -10728.659    15161.981 
     800    1319.1407   -11128.335            0   -10719.276    15140.262 
     900    1320.7682   -11128.895            0   -10719.331    15158.942 
    1000    1326.6584   -11143.786            0   -10732.396    15226.546 
    1100    1249.1154    -11129.94            0   -10742.596    14336.557 
    1200     1296.762   -11143.629            0   -10741.509    14883.414 
    1300     1305.124   -11132.722            0   -10728.009    14979.388 
    1400    1327.2999   -11127.118            0   -10715.529    15233.909 
    1500    1309.2504   -11125.095            0   -10719.103    15026.748 
    1600    1280.3632   -11123.061            0   -10726.026    14695.199 
    1700    1280.5441   -11132.484            0   -10735.394    14697.275 
    1800    1256.3691   -11127.945            0   -10738.351     14419.81 
    1900    1302.1503    -11121.62            0    -10717.83    14945.257 
    2000    1311.6593   -11124.005            0   -10717.266    15054.396 
    2100    1251.6146   -11113.139            0   -10725.019    14365.241 
    2200    1311.1906   -11136.068            0   -10729.475    15049.017 
    2300    1272.5929    -11137.08            0   -10742.455    14606.017 
    2400    1272.7202   -11141.806            0   -10747.141    14607.478 
    2500    1304.4481   -11134.476            0   -10729.973     14971.63 
    2600    1301.0335   -11123.502            0   -10720.058     14932.44 
    2700    1307.2823   -11123.789            0   -10718.407     15004.16 
    2800    1320.3175   -11129.814            0    -10720.39    15153.769 
    2900    1321.7602   -11139.114            0   -10729.243    15170.328 
    3000    1268.0397   -11133.799            0   -10740.586    14553.758 
    3100    1286.7451    -11136.42            0   -10737.407    14768.447 
    3200    1339.8433   -11135.992            0   -10720.513    15377.875 
    3300    1285.0602   -11120.385            0   -10721.894    14749.109 
    3400    1298.9485   -11125.831            0   -10723.033     14908.51 
    3500    1312.9678   -11128.852            0   -10721.707    15069.414 
    3600    1293.4701   -11130.546            0   -10729.447    14845.632 
    3700    1275.4213   -11136.207            0   -10740.705    14638.479 
    3800    1287.1935   -11133.787            0   -10734.635    14773.593 
    3900    1327.9447   -11134.671            0   -10722.882    15241.309 
    4000    1301.3888   -11125.166            0   -10721.612    14936.518 
    4100    1306.7007   -11126.958            0   -10721.757    14997.485 
    4200    1312.2365   -11127.727            0   -10720.808     15061.02 
    4300    1296.5182   -11126.604            0    -10724.56    14880.616 
    4400    1280.2475   -11143.158            0    -10746.16    14693.871 
    4500    1265.6305   -11134.325            0   -10741.859    14526.107 
    4600    1318.1068   -11137.734            0   -10728.996    15128.396 
    4700    1301.6996   -11126.427            0   -10722.776    14940.085 
    4800    1308.0466    -11129.55            0   -10723.931    15012.932 
    4900    1284.3808   -11134.739            0   -10736.459     14741.31 
    5000    1264.3221   -11133.994            0   -10741.934    14511.089 
    5100    1325.0314   -11132.902            0   -10722.017    15207.872 
    5200    1310.0566   -11125.434            0   -10719.191    15036.001 
    5300    1298.3551   -11125.305            0   -10722.691    14901.699 
    5400    1280.5013   -11131.916            0   -10734.839    14696.784 
    5500    1269.5687   -11131.098            0   -10737.411    14571.307 
    5600    1285.1253   -11123.814            0   -10725.303    14749.856 
    5700    1291.9642   -11123.117            0   -10722.485    14828.348 
    5800       1317.4   -11127.792            0   -10719.273    15120.284 
    5900    1321.7171   -11127.738            0    -10717.88    15169.833 
    6000     1304.837   -11133.308            0   -10728.684    14976.094 
    6100    1269.2559   -11133.493            0   -10739.903    14567.716 
    6200    1288.1352   -11136.022            0   -10736.578    14784.402 
    6300    1323.8862   -11132.688            0   -10722.158    15194.729 
    6400    1351.6732   -11134.302            0   -10715.155     15513.65 
    6500    1307.8341   -11125.722            0   -10720.169    15010.492 
    6600    1286.5571   -11122.965            0    -10724.01    14766.289 
    6700    1283.6306   -11127.295            0   -10729.247      14732.7 
    6800    1277.4108   -11125.647            0   -10729.529    14661.313 
    6900    1289.2904   -11124.667            0   -10724.864     14797.66 
    7000    1311.8611   -11122.052            0    -10715.25    15056.712 
    7100    1343.4829   -11131.674            0   -10715.066    15419.647 
    7200    1284.3376   -11130.542            0   -10732.275    14740.815 
    7300    1277.9037   -11130.246            0   -10733.974     14666.97 
    7400    1299.5815   -11131.776            0   -10728.783    14915.775 
    7500    1334.0026   -11133.487            0    -10719.82    15310.838 
    7600    1266.3829   -11116.594            0   -10723.895    14534.742 
    7700    1261.1476   -11126.625            0   -10735.549    14474.655 
    7800    1301.8562   -11139.062            0   -10735.363    14941.882 
    7900    1297.4024   -11132.042            0   -10729.724    14890.764 
    8000    1339.8548   -11133.108            0   -10717.626    15378.006 
    8100     1310.462   -11120.455            0   -10714.087    15040.655 
    8200     1284.871   -11125.815            0   -10727.383    14746.936 
    8300     1283.427   -11136.009            0   -10738.024    14730.364 
    8400    1272.0109   -11129.782            0   -10735.338    14599.337 
    8500     1297.605   -11131.531            0    -10729.15    14893.089 
    8600    1298.6403   -11123.309            0   -10720.607    14904.972 
    8700    1327.4099   -11129.529            0   -10717.906    15235.171 
    8800     1295.584    -11135.91            0   -10734.156    14869.894 
    8900    1283.7698   -11138.922            0   -10740.831    14734.298 
    9000    1296.3438   -11131.202            0   -10729.212    14878.615 
    9100    1323.3347   -11129.961            0   -10719.601    15188.399 
    9200    1312.4331   -11127.936            0   -10720.956    15063.278 
    9300    1276.1111   -11125.861            0   -10730.146    14646.396 
    9400    1275.0716   -11135.534            0   -10740.141    14634.465 
    9500    1281.5664   -11124.278            0   -10726.871    14709.009 
    9600    1298.9015    -11117.79            0   -10715.007     14907.97 
    9700    1312.0109   -11121.108            0    -10714.26    15058.431 
    9800    1289.8184   -11122.982            0   -10723.016     14803.72 
    9900    1262.0782   -11125.823            0   -10734.459    14485.336 
   10000    1284.1138   -11133.129            0   -10734.932    14738.246 
   10100    1338.7742   -11133.915            0   -10718.768    15365.604 
   10200     1327.189   -11117.911            0   -10706.356    15232.637 
   10300    1314.5237   -11121.916            0   -10714.289    15087.271 
   10400    1282.4961   -11119.949            0   -10722.253    14719.679 
   10500    1305.4034   -11128.264            0   -10723.464    14982.595 
   10600    1311.3784   -11132.689            0   -10726.037    15051.172 
   10700    1267.1623    -11126.09            0   -10733.149    14543.687 
   10800    1311.2186   -11140.509            0   -10733.906    15049.338 
   10900    1288.2258   -11135.021            0   -10735.549    14785.441 
   11000    1275.5814   -11126.267            0   -10730.715    14640.317 
   11100    1318.9189   -11125.746            0   -10716.756    15137.717 
   11200    1323.1591   -11125.539            0   -10715.234    15186.384 
   11300    1312.7079   -11125.882            0   -10718.818    15066.431 
   11400    1272.2409    -11132.26            0   -10737.744    14601.976 
   11500    1298.5807   -11143.134            0    -10740.45    14904.288 
   11600    1273.8439   -11125.407            0   -10730.394    14620.375 
   11700     1309.865   -11125.518            0   -10719.335    15033.803 
   11800    1329.7031   -11132.562            0   -10720.227    15261.491 
   11900    1286.0745   -11126.603            0   -10727.797    14760.749 
   12000    1284.3536   -11134.825            0   -10736.553    14740.998 
   12100    1227.6803   -11128.242            0   -10747.545    14090.538 
   12200    1265.2204   -11136.252            0   -10743.913    14521.399 
   12300    1283.6294   -11124.025            0   -10725.978    14732.686 
   12400    1315.7874   -11123.973            0   -10715.953    15101.776 
   12500    1319.9163   -11119.181            0   -10709.881    15149.165 
   12600    1312.6802   -11124.433            0   -10717.377    15066.113 
   12700    1266.5507   -11122.976            0   -10730.224    14536.668 
   12800     1296.187   -11128.729            0   -10726.787    14876.815 
   12900    1312.6901   -11126.199            0    -10719.14    15066.227 
   13000    1320.8082   -11127.261            0   -10717.685    15159.401 
   13100    1314.4981   -11132.996            0   -10725.377    15086.977 
   13200    1314.6358   -11139.074            0   -10731.412    15088.558 
   13300    1262.6026   -11140.929            0   -10749.402    14491.354 
   13400    1252.6169   -11142.818            0   -10754.388    14376.745 
   13500    1290.3793   -11139.089            0   -10738.949    14810.158 
   13600    1296.6994   -11128.633            0   -10726.533    14882.696 
   13700    1330.8336   -11133.057            0   -10720.372    15274.467 
   13800    1291.7279   -11120.579            0   -10720.021    14825.636 
   13900    1308.6681   -11135.848            0   -10730.036    15020.065 
   14000    1297.9837    -11145.03            0   -10742.532    14897.436 
   14100    1296.7011    -11139.89            0   -10737.789    14882.715 
   14200    1285.1483   -11124.182            0   -10725.663     14750.12 
   14300    1277.6174   -11118.823            0    -10722.64    14663.685 
   14400    1314.6798   -11132.079            0   -10724.403    15089.063 
   14500    1324.2755   -11145.093            0   -10734.441    15199.197 
   14600    1280.2447   -11145.031            0   -10748.034    14693.839 
   14700    1301.6237   -11149.656            0   -10746.029    14939.214 
   14800    1279.1824   -11120.017            0   -10723.348    14681.646 
   14900    1285.7891   -11118.936            0   -10720.219    14757.475 
   15000    1328.5288   -11132.263            0   -10720.292    15248.013 
   15100    1290.6845   -11126.248            0   -10726.013    14813.661 
   15200    1299.1132   -11136.237            0   -10733.389      14910.4 
   15300    1278.6108   -11135.961            0    -10739.47    14675.086 
   15400    1283.9701   -11132.702            0   -10734.549    14736.597 
   15500    1316.7409   -11128.037            0   -10719.722    15112.719 
   15600    1314.3582   -11126.688            0   -10719.111    15085.372 
   15700    1297.4439    -11128.54            0   -10726.209    14891.241 
   15800    1261.4408   -11134.123            0   -10742.956     14478.02 
   15900    1264.7959   -11134.888            0   -10742.681    14516.528 
   16000    1286.8518   -11134.546            0   -10735.499    14769.671 
   16100    1292.3532   -11129.186            0   -10728.433    14832.813 
   16200    1279.1385   -11117.267            0   -10720.612    14681.142 
   16300    1328.2429   -11129.069            0   -10717.188    15244.732 
   16400    1328.3879   -11133.701            0   -10721.775    15246.396 
   16500    1299.2243   -11145.308            0   -10742.425    14911.675 
   16600    1279.9372   -11141.497            0   -10744.595     14690.31 
   16700    1282.9276     -11129.9            0   -10732.071    14724.632 
   16800    1311.8349   -11131.479            0   -10724.686    15056.412 
   16900     1288.473   -11123.465            0   -10723.916    14788.279 
   17000    1289.1431   -11124.075            0   -10724.318    14795.969 
   17100    1346.2419   -11147.803            0    -10730.34    15451.314 
   17200    1270.6461   -11134.236            0   -10740.215    14583.672 
   17300    1291.5938   -11137.214            0   -10736.697    14824.097 
   17400    1310.0561   -11130.212            0    -10723.97    15035.996 
   17500    1329.8805   -11131.039            0    -10718.65    15263.527 
   17600    1260.4246   -11116.837            0   -10725.985    14466.356 
   17700    1244.2741   -11125.864            0   -10740.021    14280.991 
   17800    1290.2024   -11135.399            0   -10735.314    14808.127 
   17900    1284.8325   -11120.801            0   -10722.381    14746.495 
   18000    1328.3182   -11131.815            0    -10719.91    15245.597 
   18100    1293.7446   -11124.271            0   -10723.088    14848.783 
   18200    1309.0909   -11131.432            0   -10725.489    15024.918 
   18300    1315.6139   -11141.374            0   -10733.409    15099.784 
   18400    1258.0536   -11138.896            0   -10748.779    14439.144 
   18500    1260.4618   -11144.765            0   -10753.902    14466.784 
   18600    1266.9308   -11130.806            0   -10737.937     14541.03 
   18700    1263.0327   -11118.181            0    -10726.52     14496.29 
   18800    1330.2576   -11135.895            0   -10723.388    15267.856 
   18900    1282.7428   -11131.585            0   -10733.813     14722.51 
   19000    1302.1382   -11139.663            0   -10735.876    14945.119 
   19100    1291.9912   -11136.967            0   -10736.327    14828.658 
   19200    1249.8047   -11122.496            0   -10734.938    14344.468 
   19300    1305.8373   -11129.708            0   -10724.774    14987.575 
   19400    1345.5238   -11134.621            0   -10717.381    15443.071 
   19500    1313.9152   -11125.173            0   -10717.734    15080.288 
   19600    1257.9027   -11124.412            0   -10734.343    14437.412 
   19700    1272.8307   -11130.906            0   -10736.208    14608.746 
   19800    1309.3626   -11134.259            0   -10728.232    15028.036 
   19900    1292.1802   -11124.285            0   -10723.586    14830.828 
   20000     1284.313   -11120.867            0   -10722.608    14740.533 
   20100    1289.1555   -11135.186            0   -10735.425    14796.112 
   20200    1262.0373   -11137.372            0   -10746.021    14484.866 
   20300    1281.5982   -11132.722            0   -10735.304    14709.374 
   20400    1298.2576   -11125.518            0   -10722.934     14900.58 
   20500    1280.9743   -11117.297            0   -10720.073    14702.214 
   20600    1311.0983   -11123.256            0   -10716.691    15047.957 
   20700    1324.4689   -11117.053            0   -10706.341    15201.417 
   20800    1336.4288   -11114.186            0   -10699.766    15338.685 
   20900    1301.7965   -11115.668            0   -10711.987    14941.197 
   21000     1272.251   -11120.438            0   -10725.919    14602.093 
   21100    1297.8061   -11129.283            0    -10726.84    14895.397 
   21200    1295.3642   -11131.257            0   -10729.571    14867.371 
   21300    1312.0763   -11142.974            0   -10736.105    15059.182 
   21400    1264.7128   -11140.065            0   -10747.884    14515.574 
   21500    1271.2986   -11131.052            0   -10736.828    14591.162 
   21600    1316.8277   -11132.368            0   -10724.026    15113.715 
   21700    1301.3263   -11125.241            0   -10721.706      14935.8 
   21800    1283.4087    -11122.99            0   -10725.012    14730.153 
   21900    1297.5519   -11136.576            0   -10734.212     14892.48 
   22000    1278.8962   -11139.408            0   -10742.829    14678.362 
   22100    1288.4643   -11134.586            0   -10735.039    14788.178 
   22200    1305.8295   -11123.172            0   -10718.241    14987.486 
   22300     1320.261   -11127.881            0   -10718.474    15153.121 
   22400     1293.444   -11131.745            0   -10730.654    14845.332 
   22500    1273.3631   -11130.348            0   -10735.484    14614.857 
   22600    1313.9584   -11137.436            0   -10729.984    15080.783 
   22700    1329.3056   -11139.554            0   -10727.343    15256.929 
   22800    1265.9599   -11120.781            0   -10728.213    14529.887 
   22900    1343.5301   -11130.102            0   -10713.479    15420.189 
   23000    1333.6144   -11122.809            0   -10709.261    15306.383 
   23100    1317.5616   -11128.296            0   -10719.727    15122.139 
   23200    1304.0966   -11135.075            0   -10730.681    14967.597 
   23300    1292.9405   -11134.104            0    -10733.17    14839.553 
   23400    1300.5723   -11133.298            0   -10729.997    14927.146 
   23500    1298.0578   -11129.845            0   -10727.323    14898.287 
   23600    1271.2275   -11121.305            0   -10727.103    14590.345 
   23700    1322.9734   -11128.212            0   -10717.964    15184.252 
   23800    1333.3255   -11119.305            0   -10705.847    15303.067 
   23900     1324.086   -11117.359            0   -10706.767    15197.022 
   24000    1312.7931   -11130.393            0   -10723.302    15067.409 
   24100    1295.6623   -11131.847            0   -10730.068    14870.792 
   24200    1253.0788   -11118.051            0   -10729.477    14382.046 
   24300    1301.5968   -11120.444            0   -10716.826    14938.905 
   24400    1266.2929   -11104.396            0   -10711.725    14533.709 
   24500    1302.5033   -11117.524            0   -10713.625    14949.309 
   24600    1279.8265   -11116.932            0   -10720.064    14689.039 
   24700    1307.8821   -11128.379            0   -10722.811    15011.044 
   24800    1312.9222    -11133.51            0   -10726.379    15068.891 
   24900    1278.2498   -11127.184            0   -10730.805    14670.942 
   25000    1267.4231   -11133.577            0   -10740.555    14546.681 
   25100     1271.649   -11128.828            0   -10734.496    14595.184 
   25200    1314.7551    -11125.89            0   -10718.191    15089.927 
   25300    1310.2505   -11121.824            0   -10715.522    15038.226 
   25400    1290.5081   -11124.506            0   -10724.326    14811.636 
   25500     1278.548   -11131.547            0   -10735.075    14674.366 
   25600    1276.8184    -11133.07            0   -10737.135    14654.514 
   25700    1277.3664   -11127.956            0   -10731.851    14660.804 
   25800    1308.0048   -11131.532            0   -10725.926    15012.453 
   25900    1308.7226   -11129.726            0   -10723.897    15020.691 
   26000    1290.5934   -11118.796            0   -10718.589    14812.615 
   26100    1329.5893   -11122.654            0   -10710.355    15260.185 
   26200    1317.5414   -11119.446            0   -10710.883    15121.907 
   26300     1280.574    -11123.71            0    -10726.61    14697.619 
   26400     1286.254   -11128.796            0   -10729.935     14762.81 
   26500    1309.3483   -11133.674            0   -10727.651    15027.872 
   26600    1325.9354   -11131.206            0    -10720.04    15218.248 
   26700    1309.2425   -11113.422            0   -10707.432    15026.657 
   26800    1318.9309   -11120.207            0   -10711.213    15137.855 
   26900    1292.1438   -11128.251            0   -10727.564     14830.41 
   27000    1304.4499   -11130.982            0   -10726.479    14971.651 
   27100    1309.1635   -11123.577            0   -10717.612    15025.751 
   27200    1343.5436   -11130.593            0   -10713.966    15420.344 
   27300    1321.4035    -11140.14            0   -10730.379    15166.234 
   27400    1302.5347   -11136.919            0   -10733.009    14949.669 
   27500    1305.6391   -11130.518            0   -10725.645      14985.3 
   27600     1321.839   -11127.242            0   -10717.346    15171.232 
   27700    1306.1761    -11119.86            0   -10714.822    14991.463 
   27800    1301.9919   -11117.738            0   -10713.997     14943.44 
   27900    1281.1993   -11122.333            0   -10725.039    14704.795 
   28000    1306.8905   -11141.096            0   -10735.835    14999.663 
   28100    1270.4983   -11134.716            0   -10740.741    14581.976 
   28200    1291.2396   -11128.501            0   -10728.094    14820.031 
   28300    1333.5885    -11131.26            0   -10717.721    15306.085 
   28400    1296.4523   -11122.946            0   -10720.923     14879.86 
   28500    1300.1477   -11130.737            0   -10727.568    14922.273 
   28600    1312.4028   -11141.437            0   -10734.467     15062.93 
   28700    1280.5648   -11132.209            0   -10735.112    14697.513 
   28800    1304.6417   -11127.215            0   -10722.652    14973.853 
   28900    1291.1689   -11117.338            0   -10716.953     14819.22 
   29000    1301.0867   -11128.645            0   -10725.184    14933.051 
   29100    1269.0272   -11131.811            0   -10738.291    14565.091 
   29200    1259.5654   -11127.758            0   -10737.173    14456.495 
   29300    1300.9089   -11132.662            0   -10729.257    14931.009 
   29400    1308.8599   -11126.692            0   -10720.821    15022.266 
   29500    1304.2599   -11122.654            0    -10718.21     14969.47 
   29600    1305.2985   -11128.938            0   -10724.171    14981.391 
   29700    1286.3567   -11132.806            0   -10733.913    14763.989 
   29800    1277.7263   -11140.829            0   -10744.612    14664.935 
   29900    1246.5054   -11145.629            0   -10759.094      14306.6 
   30000    1282.9365   -11142.653            0   -10744.821    14724.734 
   30100    1324.0863   -11144.483            0   -10733.891    15197.025 
   30200    1313.3439   -11136.033            0   -10728.772    15073.731 
   30300    1279.3087   -11129.726            0   -10733.018    14683.096 
   30400    1293.9667   -11138.321            0   -10737.069    14851.332 
   30500    1309.9742   -11131.735            0   -10725.519    15035.055 
   30600    1323.6974   -11124.724            0   -10714.252    15192.561 
   30700    1284.4727   -11117.583            0   -10719.274    14742.365 
   30800    1344.5064   -11147.219            0   -10730.294    15431.394 
   30900    1324.9934   -11146.477            0   -10735.603    15207.436 
   31000    1290.1071   -11134.974            0   -10734.918    14807.033 
   31100    1282.5915   -11132.652            0   -10734.927    14720.774 
   31200     1295.405   -11124.377            0   -10722.678    14867.839 
   31300    1300.7753   -11117.375            0   -10714.011    14929.476 
   31400    1331.2889   -11129.193            0   -10716.367    15279.692 
   31500    1276.9128   -11123.635            0    -10727.67    14655.598 
   31600    1312.9646    -11137.72            0   -10730.576    15069.377 
   31700    1321.3098   -11138.851            0   -10729.119    15165.159 
   31800     1327.763   -11140.756            0   -10729.023    15239.224 
   31900    1258.3566   -11132.206            0   -10741.996    14442.622 
   32000    1275.3007    -11139.48            0   -10744.016    14637.095 
   32100    1287.5008   -11127.048            0     -10727.8     14777.12 
   32200    1258.8378   -11109.546            0   -10719.186    14448.144 
   32300    1297.9238    -11117.43            0    -10714.95    14896.748 
   32400    1300.2404   -11120.496            0   -10717.298    14923.337 
   32500    1265.7654   -11119.922            0   -10727.414    14527.655 
   32600    1286.7203   -11136.806            0     -10737.8    14768.162 
   32700    1248.3719   -11131.207            0   -10744.093    14328.023 
   32800    1318.4793   -11136.052            0   -10727.198    15132.671 
   32900    1320.7492   -11129.417            0   -10719.859    15158.724 
   33000    1306.0117   -11126.541            0   -10721.553    14989.577 
   33100    1304.5014   -11131.461            0   -10726.941    14972.242 
   33200    1304.5064   -11139.297            0   -10734.776    14972.299 
   33300    1248.7409   -11123.394            0   -10736.165    14332.258 
   33400    1291.3411    -11119.37            0   -10718.932    14821.197 
   33500    1307.3853   -11121.729            0   -10716.315    15005.342 
   33600    1306.0875   -11124.185            0   -10719.173    14990.446 
   33700    1273.5342   -11127.487            0   -10732.571    14616.821 
   33800    1278.8118   -11138.158            0   -10741.605    14677.393 
   33900    1300.8313   -11137.436            0   -10734.054    14930.119 
   34000    1298.6832   -11131.765            0   -10729.049    14905.465 
   34100    1308.3348   -11132.082            0   -10726.374     15016.24 
   34200    1293.3515   -11128.698            0   -10727.636    14844.271 
   34300    1293.4638   -11137.119            0   -10736.022     14845.56 
   34400    1269.7231    -11140.14            0   -10746.405    14573.078 
   34500    1311.3965   -11146.265            0   -10739.607     15051.38 
   34600    1317.0664   -11132.559            0   -10724.143    15116.455 
   34700    1312.3977    -11127.75            0   -10720.782    15062.871 
   34800    1307.9269   -11131.187            0   -10725.605    15011.558 
   34900     1270.905   -11125.132            0    -10731.03    14586.644 
   35000    1274.4367   -11128.327            0   -10733.131    14627.179 
   35100    1314.9388   -11137.558            0   -10729.802    15092.036 
   35200    1310.8932   -11130.652            0   -10724.151    15045.603 
   35300    1305.3841   -11129.456            0   -10724.663    14982.374 
   35400    1291.3418    -11136.13            0   -10735.691    14821.204 
   35500    1270.1043   -11134.454            0   -10740.601    14577.454 
   35600    1315.1098   -11135.808            0   -10727.999    15093.999 
   35700    1319.2028   -11124.611            0   -10715.533    15140.975 
   35800     1300.012   -11120.224            0   -10717.096    14920.716 
   35900     1318.143   -11128.183            0   -10719.433    15128.812 
   36000    1299.7733   -11129.646            0   -10726.593    14917.976 
   36100    1278.7392   -11125.522            0   -10728.992     14676.56 
   36200    1305.9741   -11132.478            0   -10727.501    14989.145 
   36300    1274.6409   -11119.297            0   -10724.037    14629.522 
   36400     1301.098   -11124.328            0   -10720.864     14933.18 
   36500     1316.625   -11129.483            0   -10721.204    15111.389 
   36600    1280.4156   -11132.109            0   -10735.059      14695.8 
   36700    1286.5943   -11140.675            0   -10741.708    14766.716 
   36800    1263.4806     -11123.6            0     -10731.8    14501.431 
   36900    1294.0941   -11127.657            0   -10726.365    14852.794 
   37000    1305.0187   -11130.391            0   -10725.711    14978.179 
   37100    1324.2634   -11129.963            0   -10719.315    15199.058 
   37200    1303.7543    -11121.59            0   -10717.302    14963.667 
   37300    1280.9942     -11120.7            0    -10723.47    14702.441 
   37400    1293.5149    -11131.96            0   -10730.847    14846.146 
   37500    1289.8233   -11133.243            0   -10733.275    14803.777 
   37600     1322.536   -11131.913            0   -10721.801    15179.232 
   37700    1322.3001   -11122.123            0   -10712.084    15176.525 
   37800    1285.9993   -11112.838            0   -10714.056    14759.887 
   37900    1312.2081   -11137.417            0   -10730.508    15060.695 
   38000    1295.0603   -11140.685            0   -10739.093    14863.884 
   38100    1298.5627   -11135.949            0   -10733.271    14904.082 
   38200    1296.3639   -11129.304            0   -10727.308    14878.845 
   38300    1324.3081   -11127.275            0   -10716.614    15199.571 
   38400    1322.2095    -11119.44            0    -10709.43    15175.485 
   38500    1292.6752   -11119.915            0   -10719.063    14836.508 
   38600    1295.1788   -11136.079            0   -10734.451    14865.243 
   38700    1278.4272   -11132.856            0   -10736.422    14672.979 
   38800    1309.1293   -11132.418            0   -10726.463    15025.358 
   38900     1328.647   -11130.169            0   -10718.162     15249.37 
   39000    1323.9237   -11132.212            0    -10721.67    15195.159 
   39100    1294.4673   -11143.614            0   -10742.206    14857.077 
   39200    1271.2557   -11141.047            0   -10746.837    14590.669 
   39300    1273.5076   -11132.801            0   -10737.892    14616.515 
   39400    1256.2498   -11116.561            0   -10727.004    14418.441 
   39500    1302.6167   -11124.586            0   -10720.651    14950.611 
   39600    1313.9389   -11126.616            0    -10719.17     15080.56 
   39700    1308.2442   -11125.607            0   -10719.927    15015.199 
   39800     1302.588   -11127.752            0   -10723.826    14950.281 
   39900     1280.524   -11130.299            0   -10733.215    14697.045 
   40000    1238.9681   -11132.719            0   -10748.521    14220.093 
   40100    1283.1833   -11134.626            0   -10736.717    14727.566 
   40200    1286.1722   -11123.864            0   -10725.029    14761.871 
   40300    1307.2479   -11126.348            0   -10720.976    15003.765 
   40400    1325.1598   -11133.152            0   -10722.227    15209.346 
   40500    1301.2131   -11138.363            0   -10734.863    14934.501 
   40600    1281.5792    -11142.43            0   -10745.018    14709.156 
   40700    1307.5063   -11141.904            0   -10736.453    15006.731 
   40800     1316.992   -11138.651            0   -10730.259    15115.601 
   40900    1275.1131   -11126.028            0   -10730.622    14634.941 
   41000    1286.5714   -11128.042            0   -10729.083    14766.453 
   41100    1310.7118   -11132.937            0   -10726.491    15043.521 
   41200    1295.2978   -11127.962            0   -10726.296    14866.609 
   41300    1273.2882   -11123.521            0   -10728.681    14613.997 
   41400    1278.7163   -11136.288            0   -10739.764    14676.297 
   41500     1301.354   -11139.438            0   -10735.894    14936.118 
   41600    1320.1041   -11135.477            0   -10726.119     15151.32 
   41700    1287.9199   -11121.303            0   -10721.925     14781.93 
   41800    1294.7243   -11122.655            0   -10721.168    14860.027 
   41900    1299.0285   -11128.074            0   -10725.252    14909.428 
   42000    1296.4566   -11139.045            0    -10737.02    14879.909 
   42100    1285.7769   -11142.136            0   -10743.423    14757.334 
   42200    1297.0467   -11139.914            0   -10737.706    14886.682 
   42300    1301.8178   -11124.239            0   -10720.552    14941.441 
   42400    1310.3158   -11126.514            0   -10720.191    15038.976 
   42500    1296.1965   -11127.549            0   -10725.605    14876.923 
   42600    1301.0143    -11137.36            0   -10733.922     14932.22 
   42700    1242.1303   -11133.021            0   -10747.843    14256.386 
   42800     1274.333   -11136.294            0    -10741.13    14625.988 
   42900    1306.7909   -11126.906            0   -10721.677    14998.519 
   43000    1300.4549    -11123.06            0   -10719.795    14925.799 
   43100     1306.076   -11130.721            0   -10725.713    14990.315 
   43200    1268.1277   -11125.932            0   -10732.691    14554.767 
   43300    1301.6616   -11135.148            0    -10731.51    14939.649 
   43400    1287.8256   -11120.522            0   -10721.174    14780.848 
   43500    1351.4254   -11129.661            0   -10710.591    15510.807 
   43600    1325.5741   -11129.515            0   -10718.461    15214.102 
   43700    1278.8919   -11130.529            0   -10733.951    14678.312 
   43800    1273.9992   -11129.472            0   -10734.411    14622.157 
   43900    1311.0235   -11134.203            0   -10727.661    15047.098 
   44000    1306.8657    -11129.25            0   -10723.997    14999.379 
   44100    1313.4582   -11130.716            0   -10723.419    15075.043 
   44200    1262.1707   -11118.253            0    -10726.86    14486.397 
   44300    1253.3024   -11119.718            0   -10731.075    14384.612 
   44400    1308.4585   -11140.296            0   -10734.549    15017.659 
   44500    1299.9527   -11143.607            0   -10740.498    14920.035 
   44600    1264.7424   -11130.885            0   -10738.694    14515.913 
   44700    1278.4498   -11117.145            0   -10720.704    14673.239 
   44800    1325.6433   -11125.186            0    -10714.11    15214.895 
   44900    1318.6583   -11126.044            0   -10717.134    15134.726 
   45000    1294.7562   -11129.682            0   -10728.184    14860.393 
   45100    1299.4431   -11142.547            0   -10739.596    14914.186 
   45200    1271.8645   -11131.803            0   -10737.404    14597.656 
   45300    1306.4159   -11134.184            0    -10729.07    14994.216 
   45400    1288.2434   -11125.337            0   -10725.859    14785.643 
   45500    1311.0593   -11127.997            0   -10721.444     15047.51 
   45600     1323.093   -11127.775            0   -10717.491    15185.625 
   45700    1290.6618   -11124.822            0   -10724.594    14813.401 
   45800    1316.7706   -11146.917            0   -10738.593     15113.06 
   45900    1277.5232   -11139.426            0   -10743.272    14662.604 
   46000    1276.0589   -11131.976            0   -10736.276    14645.797 
   46100    1307.4318   -11129.651            0   -10724.223    15005.875 
   46200    1341.6084   -11135.812            0   -10719.786    15398.133 
   46300    1304.6461   -11126.636            0   -10722.071    14973.903 
   46400    1296.4221   -11131.366            0   -10729.352    14879.513 
   46500    1289.3347   -11141.417            0   -10741.601    14798.169 
   46600     1251.706    -11128.86            0   -10740.712    14366.289 
   46700    1315.6985   -11127.623            0   -10719.631    15100.756 
   46800    1321.1649   -11126.033            0   -10716.346    15163.495 
   46900    1301.5905   -11130.371            0   -10726.754    14938.833 
   47000    1304.4657   -11140.827            0   -10736.319    14971.832 
   47100    1310.4196   -11141.954            0   -10735.599    15040.167 
   47200     1310.931   -11130.643            0   -10724.129    15046.037 
   47300    1333.7957    -11124.59            0   -10710.986    15308.463 
   47400     1310.739   -11122.486            0   -10716.033    15043.834 
   47500    1306.6813   -11128.828            0   -10723.633    14997.262 
   47600    1298.4368   -11129.614            0   -10726.975    14902.636 
   47700    1270.6658   -11122.787            0    -10728.76    14583.898 
   47800    1334.7534   -11137.527            0   -10723.627    15319.455 
   47900    1321.3557   -11126.519            0   -10716.773    15165.685 
   48000    1336.2751   -11128.688            0   -10714.315    15336.921 
   48100     1286.385   -11125.704            0   -10726.802    14764.313 
   48200    1291.5254   -11136.302            0   -10735.806    14823.312 
   48300    1276.0118   -11128.407            0   -10732.722    14645.256 
   48400    1271.5088   -11121.759            0    -10727.47    14593.574 
   48500    1338.5208   -11127.014            0   -10711.945    15362.696 
   48600    1343.2495   -11116.568            0   -10700.033    15416.968 
   48700    1318.6841   -11116.841            0   -10707.923    15135.023 
   48800    1318.7227   -11129.433            0   -10720.503    15135.466 
   48900    1296.4585   -11130.256            0    -10728.23    14879.931 
   49000    1272.4506   -11122.149            0   -10727.569    14604.383 
   49100    1324.0543   -11125.267            0   -10714.684    15196.658 
   49200    1355.3609   -11124.399            0   -10704.109    15555.976 
   49300    1333.9758   -11124.981            0   -10711.322     15310.53 
   49400    1301.7148    -11120.91            0   -10717.255    14940.259 
   49500    1317.8175   -11130.186            0   -10721.537    15125.077 
   49600    1286.8453   -11125.406            0   -10726.362    14769.597 
   49700    1294.7133   -11136.522            0   -10735.038      14859.9 
   49800    1264.4293   -11131.986            0   -10739.893     14512.32 
   49900     1298.598   -11131.501            0   -10728.812    14904.487 
   50000    1302.3957   -11121.436            0   -10717.569    14948.074 
Loop time of 10615.3 on 1 procs for 50000 steps with 2400 atoms

Performance: 0.407 ns/day, 58.974 hours/ns, 4.710 timesteps/s
98.9% CPU use with 1 MPI tasks x 1 OpenMP threads

MPI task timing breakdown:
Section |  min time  |  avg time  |  max time  |%varavg| %total
---------------------------------------------------------------
Pair    | 10574      | 10574      | 10574      |   0.0 | 99.61
Neigh   | 33.935     | 33.935     | 33.935     |   0.0 |  0.32
Comm    | 3.1502     | 3.1502     | 3.1502     |   0.0 |  0.03
Output  | 0.016613   | 0.016613   | 0.016613   |   0.0 |  0.00
Modify  | 3.2854     | 3.2854     | 3.2854     |   0.0 |  0.03
Other   |            | 0.9514     |            |       |  0.01

Nlocal:        2400.00 ave        2400 max        2400 min
Histogram: 1 0 0 0 0 0 0 0 0 0
Nghost:        5220.00 ave        5220 max        5220 min
Histogram: 1 0 0 0 0 0 0 0 0 0
Neighs:         0.00000 ave           0 max           0 min
Histogram: 1 0 0 0 0 0 0 0 0 0
FullNghs:      284664.0 ave      284664 max      284664 min
Histogram: 1 0 0 0 0 0 0 0 0 0

Total # of neighbors = 284664
Ave neighs/atom = 118.61000
Neighbor list builds = 2333
Dangerous builds = 0

velocity        all scale ${Tsim}
velocity        all scale 1300
unfix           1

#-----------------------------------------
# 2nd equilibration run
compute         ke all ke/atom
variable        temp atom c_ke/1.5

fix             1 all nve

compute         layers all chunk/atom bin/1d z lower 0.05 units reduced # <--- delta z ?
fix             2 all ave/chunk 10 100 1000 layers v_temp file profile.mp # <--- use every 10 steps, 100 times, repeat every 1000 steps
fix             3 all thermal/conductivity 10 z 20 # <--- perform kintic energy swap every 10 steps, using 20 bins

variable        tdiff equal f_2[11][3]-f_2[1][3]
thermo_style    custom step temp epair etotal f_3 v_tdiff
thermo          1000
#thermo_modify   colname f_3 E_delta colname v_tdiff dTemp_step


run 200000
Per MPI rank memory allocation (min/avg/max) = 4.246 | 4.246 | 4.246 Mbytes
Step Temp E_pair TotEng f_3 v_tdiff 
   50000         1300   -11121.437   -10718.313            0            0 
   51000    1313.2791   -11125.562   -10718.321    51.935269  0.031482454 
   52000    1322.5017    -11128.42   -10718.319    99.566098  0.055416993 
   53000    1321.9021   -11128.265   -10718.349    145.66426  0.059761102 
   54000    1325.0027   -11129.237    -10718.36    192.19955  0.066099154 
   55000    1310.0279   -11124.552   -10718.319    239.13677  0.065310943 
   56000    1323.4777   -11128.749   -10718.345     285.0482  0.055530038 
   57000    1290.7484   -11118.562   -10718.307    329.86623  0.059859679 
   58000    1316.5242   -11126.585   -10718.337    377.83475  0.057730235 
   59000     1317.235   -11126.816   -10718.348    425.17972  0.063333229 
   60000    1296.9496   -11120.534   -10718.356    469.10978  0.060161447 
   61000    1305.0843   -11123.046   -10718.346    514.63432  0.067159167 
   62000    1314.4058   -11125.931    -10718.34     559.4187  0.058869081 
   63000     1311.187   -11124.934   -10718.341    606.53634  0.058573253 
   64000    1312.6174    -11125.38   -10718.344    654.17206  0.066388402 
   65000     1310.992   -11124.827   -10718.295    700.56429  0.063982419 
   66000    1326.5467   -11129.701   -10718.346    745.33224  0.063327378 
   67000    1294.8244   -11119.842   -10718.323    789.31125  0.059780352 
   68000    1303.6768   -11122.606   -10718.343    836.24641  0.063215083 
   69000    1322.5841   -11128.483   -10718.357    881.13925   0.06938622 
   70000    1327.3616   -11129.961   -10718.353    926.56027  0.062313109 
   71000    1328.0002   -11130.148   -10718.342    972.48491  0.053382699 
   72000    1284.8325    -11116.72   -10718.299    1018.3285  0.066273705 
   73000     1320.097   -11127.682   -10718.326     1064.878  0.064197483 
   74000    1335.3622   -11132.433   -10718.343    1108.6113  0.062946282 
   75000    1327.2414   -11129.922   -10718.351    1153.5385  0.054646623 
   76000    1321.6338    -11128.15   -10718.318    1199.4841  0.061992417 
   77000    1320.3273   -11127.763   -10718.336    1246.0395  0.068333698 
   78000    1293.7277     -11119.5   -10718.321    1291.8506  0.068909553 
   79000    1287.8146   -11117.671   -10718.326    1338.2556  0.066693806 
   80000    1327.4291    -11130.02    -10718.39    1385.6465  0.066961888 
   81000    1274.8545   -11113.684   -10718.357    1429.9111  0.066385486 
   82000    1296.0158   -11120.243   -10718.355    1474.4309  0.064269404 
   83000    1304.5784   -11122.922   -10718.379    1520.0787  0.067661152 
   84000     1316.853   -11126.743   -10718.394    1565.0857  0.066003196 
   85000    1294.0254   -11119.659   -10718.388    1611.1351  0.073555203 
   86000     1338.416    -11133.44   -10718.404     1655.931  0.070430051 
   87000    1309.4733   -11124.459   -10718.398    1699.6218  0.067233463 
   88000    1315.9579   -11126.505   -10718.433    1746.5105  0.058843468 
   89000    1339.5572   -11133.809   -10718.418    1794.0554  0.057172054 
   90000    1317.6973   -11127.021    -10718.41     1839.459  0.068689871 
   91000    1315.2667   -11126.252   -10718.394    1885.1634  0.057460258 
   92000    1296.5587   -11120.475   -10718.418    1930.6441  0.055941399 
   93000    1295.3345   -11120.093   -10718.416    1976.0482  0.064855323 
   94000     1313.726   -11125.786   -10718.406    2020.8654  0.064705942 
   95000    1314.7325   -11126.119   -10718.427    2064.5053  0.061017426 
   96000    1306.1246   -11123.457   -10718.434    2107.1442  0.063973599 
   97000    1303.0715    -11122.48   -10718.404    2152.0242  0.063712715 
   98000    1318.4776   -11127.273    -10718.42    2198.9788  0.059816813 
   99000    1351.4906   -11137.514   -10718.423    2245.2711  0.064045078 
  100000    1298.3604   -11121.014   -10718.398    2291.3088  0.061785933 
  101000    1308.8439   -11124.267   -10718.401    2336.3011   0.05916358 
  102000    1300.8726   -11121.793   -10718.399    2384.6781  0.065424707 
  103000    1336.5654   -11132.884   -10718.421    2428.5103  0.072128737 
  104000     1322.445     -11128.5   -10718.416    2471.8811  0.061729713 
  105000    1302.2829   -11122.225   -10718.393    2516.6566  0.063314386 
  106000    1305.6895     -11123.3   -10718.412    2563.7541  0.057795904 
  107000     1286.633   -11117.389    -10718.41    2610.2747  0.054908148 
  108000    1331.2938   -11131.238   -10718.411    2654.4199  0.061812992 
  109000    1332.8561   -11131.738   -10718.426    2701.8818  0.052963235 
  110000    1315.8176   -11126.439   -10718.411      2747.21   0.06388971 
  111000    1334.8189   -11132.343   -10718.422    2795.2322  0.061585912 
  112000    1329.1119   -11130.594   -10718.443     2840.635  0.059245568 
  113000    1296.9583   -11120.584   -10718.404    2886.7187   0.06052422 
  114000    1312.4549   -11125.394   -10718.408    2932.8675  0.060306367 
  115000     1330.212    -11130.92   -10718.428    2979.6824  0.066503417 
  116000    1318.4005   -11127.247   -10718.418    3026.8168  0.061177982 
  117000    1294.0351    -11119.68   -10718.406    3071.8862  0.071962516 
  118000    1333.3113   -11131.891   -10718.437    3114.2909  0.066440416 
  119000    1327.6571   -11130.135   -10718.435    3160.5616  0.066671102 
  120000    1316.0443    -11126.52   -10718.421    3205.9382  0.073721538 
  121000    1292.5456   -11119.229   -10718.416    3251.5263  0.059981064 
  122000    1312.8394   -11125.512   -10718.407    3296.5914   0.06547337 
  123000    1300.0289   -11121.561   -10718.428    3341.1785  0.057236536 
  124000    1325.4747   -11129.446   -10718.423    3386.2532  0.057812904 
  125000    1322.9803   -11128.708   -10718.458    3432.4547  0.067047629 
  126000    1317.1235   -11126.878   -10718.444     3477.596  0.066341474 
  127000    1306.1801   -11123.475   -10718.435    3522.7068  0.059598426 
  128000    1297.5374   -11120.794   -10718.434    3569.3091  0.058588773 
  129000    1328.7785   -11130.502   -10718.454    3614.1845  0.067168937 
  130000     1329.496   -11130.708   -10718.438    3660.9197   0.06610864 
  131000    1309.8955   -11124.647   -10718.455    3704.1382  0.076021302 
  132000    1295.5664   -11120.199    -10718.45    3745.9432  0.064619673 
  133000    1336.8897   -11133.076   -10718.513    3791.2975  0.063160423 
  134000     1312.162   -11125.367   -10718.472    3837.8017  0.068341735 
  135000    1299.6277   -11121.499   -10718.491    3882.5032  0.068117808 
  136000    1282.3515   -11116.149   -10718.499    3928.5878  0.062547329 
  137000    1327.1941   -11130.049   -10718.492    3973.5302  0.062134997 
  138000     1309.138   -11124.441   -10718.484    4019.0408  0.062398165 
  139000    1313.1891   -11125.714     -10718.5    4061.6246  0.062905338 
  140000    1319.6249   -11127.697   -10718.488    4104.8958  0.073126981 
  141000    1325.3291   -11129.473   -10718.495    4149.5304  0.064466857 
  142000    1310.5485   -11124.895     -10718.5    4194.5793  0.061416567 
  143000    1327.2123   -11130.064   -10718.502    4240.9279  0.058886469 
  144000      1309.62   -11124.584   -10718.477    4288.6897  0.065577454 
  145000     1299.454   -11121.435    -10718.48    4333.3051  0.063011627 
  146000    1301.5427   -11122.077   -10718.475      4378.27   0.06144531 
  147000    1307.9319   -11124.081   -10718.498    4423.5981  0.063433028 
  148000     1294.903   -11120.035   -10718.492     4470.395  0.065902353 
  149000    1330.3128   -11130.989   -10718.466    4514.3491  0.055408318 
  150000    1295.1961   -11120.102   -10718.468    4557.3616  0.062686169 
  151000    1333.1862   -11131.909   -10718.495    4600.9472  0.067146599 
  152000    1309.0689   -11124.441   -10718.506     4645.354   0.06272812 
  153000    1303.7606   -11122.782   -10718.492    4688.0603   0.07710649 
  154000     1293.926    -11119.74     -10718.5    4732.9411     0.072804 
  155000     1345.223   -11135.648   -10718.501     4779.002  0.069770544 
  156000    1297.4669   -11120.858    -10718.52    4822.0774   0.07183708 
  157000    1301.9137   -11122.216   -10718.499    4863.1912  0.071870433 
  158000    1304.3036   -11122.984   -10718.526    4909.0227  0.067435151 
  159000    1312.4064   -11125.473   -10718.502    4951.4369  0.070856454 
  160000    1347.7008   -11136.431   -10718.515    4997.0678   0.06069201 
  161000     1311.606   -11125.247   -10718.525    5040.2809  0.063245408 
  162000    1328.6898   -11130.519   -10718.498    5087.6878  0.056004379 
  163000    1322.4468   -11128.607   -10718.523    5135.2101  0.064022368 
  164000    1301.6306    -11122.14    -10718.51    5178.4813  0.065363263 
  165000    1329.8526     -11130.9    -10718.52    5222.8269  0.061411331 
  166000    1318.2104   -11127.295   -10718.524    5268.0382  0.060796132 
  167000    1301.9123   -11122.242   -10718.526    5313.3308  0.066775137 
  168000    1300.0602   -11121.668   -10718.526    5356.5077  0.064339076 
  169000     1326.887   -11129.992   -10718.531    5400.3996  0.064026127 
  170000    1323.8066   -11129.015   -10718.509    5443.9963  0.070161046 
  171000    1313.5551   -11125.859   -10718.532    5489.5078  0.064987566 
  172000    1294.8632   -11120.048   -10718.517    5535.6734  0.066759795 
  173000    1326.1846   -11129.785   -10718.542     5582.801  0.059911862 
  174000    1294.4673   -11119.946   -10718.538    5630.3709  0.061816813 
  175000    1301.2281   -11122.038   -10718.534    5675.5756  0.060646377 
  176000    1305.5662   -11123.382   -10718.532    5721.3234  0.064979384 
  177000    1342.0438   -11134.712   -10718.551    5768.3881  0.061745076 
  178000    1333.6695   -11132.093   -10718.528     5813.362  0.060122842 
  179000    1323.7201   -11129.016   -10718.537     5860.206  0.062626945 
  180000    1308.7832   -11124.366   -10718.519    5905.1778  0.061746705 
  181000    1308.9745   -11124.429   -10718.522    5949.2997  0.065231846 
  182000    1316.9743   -11126.908   -10718.521     5994.198  0.056264656 
  183000     1323.403   -11128.882   -10718.501    6040.7474  0.059127605 
  184000     1317.578   -11127.077   -10718.503    6087.1619  0.061206262 
  185000    1328.0672   -11130.353   -10718.525    6133.9497   0.06960721 
  186000    1324.0042   -11129.107    -10718.54    6177.5931  0.066080396 
  187000    1289.3213   -11118.313   -10718.501    6225.2585  0.058277779 
  188000    1312.9953   -11125.676   -10718.522    6270.4213  0.064888329 
  189000    1329.8986   -11130.924   -10718.529    6313.6827   0.06972081 
  190000    1306.7036   -11123.738   -10718.536      6359.12   0.06433935 
  191000     1336.987   -11133.123    -10718.53    6404.6811   0.05996493 
  192000    1298.0669   -11121.046   -10718.522     6450.622  0.058807547 
  193000    1316.1408   -11126.664   -10718.535    6496.3406  0.062080712 
  194000    1315.4923    -11126.46   -10718.532    6542.0382  0.062470023 
  195000    1312.3068   -11125.479    -10718.54    6586.3503  0.060216922 
  196000    1320.9555   -11128.146   -10718.524    6632.7397  0.064412269 
  197000    1316.3966   -11126.754   -10718.546    6678.7979  0.055434247 
  198000    1298.7684   -11121.281    -10718.54    6727.4192  0.062309396 
  199000    1306.6179    -11123.72   -10718.544    6771.6664  0.064360701 
  200000    1335.5058   -11132.677   -10718.543     6818.724   0.06732992 
  201000      1300.87   -11121.912   -10718.519    6863.7352  0.068128814 
  202000    1317.8173   -11127.189   -10718.541    6907.6394  0.069306125 
  203000    1295.8083   -11120.358   -10718.535     6952.476  0.066522497 
  204000    1339.8087   -11134.016   -10718.548    6998.8133  0.063316441 
  205000    1337.9472   -11133.414   -10718.523    7043.7312  0.061015876 
  206000     1312.662   -11125.585   -10718.535    7090.4189  0.065560769 
  207000    1310.0233    -11124.75   -10718.518    7137.9591  0.065945287 
  208000    1299.3359   -11121.457   -10718.539    7182.4947  0.062836706 
  209000    1301.9912   -11122.302   -10718.561    7228.8309  0.064990329 
  210000    1323.7608   -11129.055   -10718.563    7275.9305  0.062941511 
  211000    1310.8057   -11125.011   -10718.536     7322.492  0.063511462 
  212000    1322.9921   -11128.823    -10718.57    7369.0607  0.059436732 
  213000    1308.9086    -11124.43   -10718.544     7415.477  0.063030355 
  214000    1314.8314   -11126.272    -10718.55    7461.6416  0.061331556 
  215000    1319.2882   -11127.653   -10718.549    7504.5505  0.066381559 
  216000    1303.7325   -11122.829   -10718.548     7550.324  0.061780956 
  217000    1309.3556    -11124.55   -10718.525    7597.1375  0.063602788 
  218000    1369.9569   -11143.385   -10718.568    7643.4756  0.069678425 
  219000     1312.722   -11125.604   -10718.536    7687.7683  0.061123763 
  220000    1326.2057   -11129.782   -10718.532    7734.6876    0.0642763 
  221000    1328.9698   -11130.681   -10718.574    7779.1906  0.065829543 
  222000    1327.9106   -11130.302   -10718.523    7823.9292  0.066281673 
  223000    1302.9494   -11122.572   -10718.534    7870.3115  0.066209644 
  224000    1328.8485   -11130.608   -10718.539    7915.6032  0.060963504 
  225000    1303.0611   -11122.614   -10718.541    7963.7855    0.0608492 
  226000    1330.7156   -11131.182   -10718.533    8009.2314  0.067772616 
  227000    1325.0476   -11129.468   -10718.577    8054.5209  0.061024734 
  228000    1323.4562   -11128.975   -10718.577    8099.4334  0.068672255 
  229000    1297.8971   -11121.037   -10718.566    8145.8707  0.064506603 
  230000    1308.2324   -11124.257    -10718.58    8191.7985  0.069888173 
  231000    1291.5246   -11119.061   -10718.565    8238.9621  0.072072006 
  232000    1309.9569   -11124.799   -10718.588    8283.7009  0.065906529 
  233000    1287.8077   -11117.921   -10718.578    8329.4839  0.063105821 
  234000    1325.0429   -11129.499    -10718.61    8375.7059  0.067693955 
  235000    1325.8945   -11129.755   -10718.602    8421.0652  0.066470509 
  236000    1309.0742   -11124.546   -10718.608    8465.6318  0.063714234 
  237000    1314.8411   -11126.319   -10718.594    8511.0986  0.061166919 
  238000    1322.1668   -11128.605   -10718.608    8557.4167  0.062892651 
  239000    1301.7897   -11122.253   -10718.574    8601.3151  0.065593236 
  240000    1321.5554    -11128.39   -10718.582    8648.2955  0.057003652 
  241000    1326.7214   -11129.992   -10718.582    8694.2467  0.062135972 
  242000    1287.3544   -11117.775   -10718.573    8741.7151  0.058029632 
  243000    1304.6491   -11123.127   -10718.562    8788.0122  0.063082999 
  244000    1336.6611   -11133.092     -10718.6    8836.4637  0.063848468 
  245000    1323.4323       -11129    -10718.61    8881.6292  0.059672287 
  246000     1338.202   -11133.591   -10718.621     8926.998  0.063018733 
  247000    1302.3151   -11122.442   -10718.601    8972.3471  0.058260461 
  248000    1312.3495   -11125.549   -10718.596    9017.5199  0.063684665 
  249000    1336.5069   -11133.079   -10718.635    9063.0436  0.061612599 
  250000    1289.5497    -11118.48   -10718.597    9107.8712  0.065971133 
Loop time of 42500.8 on 1 procs for 200000 steps with 2400 atoms

Performance: 0.407 ns/day, 59.029 hours/ns, 4.706 timesteps/s
98.9% CPU use with 1 MPI tasks x 1 OpenMP threads

MPI task timing breakdown:
Section |  min time  |  avg time  |  max time  |%varavg| %total
---------------------------------------------------------------
Pair    | 42330      | 42330      | 42330      |   0.0 | 99.60
Neigh   | 142.85     | 142.85     | 142.85     |   0.0 |  0.34
Comm    | 13.227     | 13.227     | 13.227     |   0.0 |  0.03
Output  | 0.0064608  | 0.0064608  | 0.0064608  |   0.0 |  0.00
Modify  | 10.315     | 10.315     | 10.315     |   0.0 |  0.02
Other   |            | 3.983      |            |       |  0.01

Nlocal:        2400.00 ave        2400 max        2400 min
Histogram: 1 0 0 0 0 0 0 0 0 0
Nghost:        5342.00 ave        5342 max        5342 min
Histogram: 1 0 0 0 0 0 0 0 0 0
Neighs:         0.00000 ave           0 max           0 min
Histogram: 1 0 0 0 0 0 0 0 0 0
FullNghs:      285508.0 ave      285508 max      285508 min
Histogram: 1 0 0 0 0 0 0 0 0 0

Total # of neighbors = 285508
Ave neighs/atom = 118.96167
Neighbor list builds = 9814
Dangerous builds = 0

#------------------------------------------
# thermal conductivity calculation
# reset fix thermal/conductivity to zero energy accumulation
fix             3 all thermal/conductivity 10 z 20

variable start_time equal time
variable kappa equal (f_3/(time-${start_time})/(lx*ly)/2.0)*(lz/2.0)/f_ave
variable kappa equal (f_3/(time-250)/(lx*ly)/2.0)*(lz/2.0)/f_ave

fix             ave all ave/time 1 1 1000 v_tdiff ave running
thermo_style    custom step temp epair etotal f_3 v_tdiff f_ave
# thermo_modify   colname f_3 E_delta colname v_tdiff dTemp_step colname f_ave dTemp

run 200000
Per MPI rank memory allocation (min/avg/max) = 4.501 | 4.501 | 4.501 Mbytes
Step Temp E_pair TotEng f_3 v_tdiff f_ave 
  250000    1289.5497    -11118.48   -10718.597            0  0.065971133  0.065971133 
  251000      1319.01   -11127.626   -10718.607     44.29556  0.066190489  0.066080811 
  252000    1290.8468   -11118.903   -10718.618    90.436989  0.063986588  0.065382737 
  253000    1314.7227   -11126.296   -10718.607     133.4709  0.069071599  0.066304952 
  254000     1326.948   -11130.104   -10718.623    179.79281  0.063879792   0.06581992 
  255000    1349.2989   -11137.036   -10718.625     224.3762  0.065417031  0.065752772 
  256000    1338.0859   -11133.577   -10718.643    269.02875  0.058793659  0.064758613 
  257000    1304.9261   -11123.276   -10718.625    314.53134  0.065363489  0.064834223 
  258000     1321.072   -11128.282   -10718.624     358.9195  0.061622397  0.064477353 
  259000    1317.8244   -11127.283   -10718.632    403.97523  0.062108709  0.064240489 
  260000    1298.9379    -11121.43   -10718.635    449.69289  0.060463517  0.063897128 
  261000    1315.6696   -11126.608   -10718.626    494.50676  0.060854129  0.063643544 
  262000    1291.7597   -11119.184   -10718.615      538.845  0.061512338  0.063479605 
  263000    1303.4434   -11122.817   -10718.626    584.84025  0.057912747  0.063081973 
  264000    1292.1297   -11119.335   -10718.652    627.99598  0.059455304  0.062840195 
  265000    1314.3987   -11126.239   -10718.651    674.66298  0.061728958  0.062770743 
  266000    1339.9516   -11134.155   -10718.643    720.27612  0.070456724  0.063222859 
  267000    1308.9004   -11124.539   -10718.655    765.88674  0.060284779  0.063059632 
  268000    1305.2157   -11123.402   -10718.661    811.23831  0.065164085  0.063170393 
  269000    1322.3646   -11128.723   -10718.664    855.99046  0.068966838  0.063460215 
  270000    1340.0575   -11134.205    -10718.66    900.56529  0.064890402  0.063528319 
  271000    1309.5311   -11124.718   -10718.639    943.45483  0.063853293  0.063543091 
  272000    1332.7354   -11131.916   -10718.641    986.86014  0.058233859  0.063312255 
  273000    1291.7625   -11119.198   -10718.629    1032.6129  0.069860473  0.063585097 
  274000    1330.5827   -11131.285   -10718.678    1078.3102  0.067074523  0.063724674 
  275000    1311.9494   -11125.491   -10718.662    1123.9543  0.062665835   0.06368395 
  276000    1307.6943   -11124.175   -10718.665    1168.2921  0.067006904  0.063807022 
  277000    1290.8407   -11118.936   -10718.652    1211.6968  0.063706631  0.063803437 
  278000    1300.7212   -11121.976   -10718.628    1259.6021  0.063864996  0.063805559 
  279000    1297.9792   -11121.157    -10718.66    1304.3372  0.063993718  0.063811831 
  280000    1309.4817   -11124.716   -10718.652    1352.1958  0.059013991  0.063657062 
  281000    1303.3601   -11122.806    -10718.64    1397.2001  0.063458568  0.063650859 
  282000     1284.515   -11116.981    -10718.66    1442.2233  0.057457375  0.063463178 
  283000    1312.6741   -11125.713   -10718.659    1486.3066  0.063712883  0.063470522 
  284000     1322.275    -11128.69   -10718.659    1531.8485  0.069245783   0.06363553 
  285000    1325.5863   -11129.731   -10718.674    1576.2147  0.064834208  0.063668826 
  286000     1310.897   -11125.151   -10718.649    1621.9131  0.058697068  0.063534455 
  287000    1338.2952   -11133.672   -10718.673    1668.8579  0.057516821  0.063376096 
  288000    1312.1417   -11125.576   -10718.687    1716.9994  0.065424297  0.063428614 
  289000    1303.9528    -11123.02    -10718.67      1763.43  0.058070402  0.063294658 
  290000    1307.8441   -11124.231   -10718.675    1809.9261  0.065328349  0.063344261 
  291000    1332.7271   -11131.921   -10718.649    1856.9052  0.064055159  0.063361187 
  292000    1308.7246   -11124.499    -10718.67    1900.0144  0.069431534  0.063502358 
  293000     1301.323   -11122.198   -10718.664    1945.5426  0.063258276   0.06349681 
  294000    1330.8386   -11131.369   -10718.683    1993.2741  0.069077193  0.063620819 
  295000    1310.9236   -11125.176   -10718.665    2037.5933  0.061601829  0.063576928 
  296000    1321.3491   -11128.423   -10718.679    2085.6675   0.05478875  0.063389945 
  297000    1303.5992   -11122.926   -10718.686    2131.8359  0.064055536  0.063403812 
  298000    1302.7903   -11122.686   -10718.697    2175.5589  0.060721207  0.063349065 
  299000    1320.3014   -11128.091   -10718.672     2221.378  0.063759093  0.063357265 
  300000     1327.005   -11130.175   -10718.677    2265.4821  0.063016199  0.063350578 
  301000    1336.2402   -11133.045   -10718.683    2310.7921  0.063203895  0.063347757 
  302000    1287.4653   -11117.903   -10718.667    2356.1166  0.061542925  0.063313703 
  303000    1319.3739   -11127.802    -10718.67    2399.6714  0.063746627  0.063321721 
  304000    1297.3186   -11120.967   -10718.675    2446.2066  0.059374102  0.063249946 
  305000    1343.7248   -11135.388   -10718.705    2491.9863  0.063729771  0.063258514 
  306000    1302.8881   -11122.701   -10718.682    2537.9611  0.064214208  0.063275281 
  307000    1310.1161    -11124.96   -10718.699    2585.3381  0.057464919  0.063175102 
  308000    1290.9143   -11118.981   -10718.675    2631.8423  0.056822326  0.063067428 
  309000    1275.0835   -11114.078   -10718.681    2677.8569   0.05747693  0.062974253 
  310000     1298.811    -11121.45   -10718.695    2723.6572  0.060949991  0.062941068 
  311000    1292.4859   -11119.477   -10718.683     2770.976  0.058742372  0.062873347 
  312000      1328.12   -11130.556   -10718.712    2817.2802   0.05669162  0.062775225 
  313000    1309.9022   -11124.896   -10718.701    2865.3675  0.069159533  0.062874979 
  314000    1336.5622   -11133.184   -10718.722    2910.9938  0.062224468  0.062864972 
  315000    1301.6472   -11122.332   -10718.698    2958.5837  0.062130591  0.062853845 
  316000    1305.9147   -11123.675   -10718.717    3005.1573  0.066750186  0.062911999 
  317000    1289.1931   -11118.489   -10718.717    3051.6223  0.059847409  0.062866931 
  318000    1332.3778   -11131.847   -10718.683    3100.8477  0.061363314   0.06284514 
  319000    1330.0914   -11131.141   -10718.686    3144.1311  0.059579276  0.062798485 
  320000    1316.1584   -11126.846   -10718.711    3191.0585  0.064506113  0.062822536 
  321000    1306.0062   -11123.665   -10718.679    3236.8004  0.062223159  0.062814211 
  322000     1275.107   -11114.076   -10718.672    3282.1802   0.06104229  0.062789938 
  323000    1312.0159   -11125.561   -10718.711    3328.9472   0.06009599  0.062753534 
  324000     1324.468   -11129.412   -10718.701    3373.8779  0.059496719  0.062710109 
  325000    1315.8905   -11126.768   -10718.716    3417.9474  0.063923786  0.062726079 
  326000    1311.6398   -11125.431   -10718.698    3464.5791  0.065339256  0.062760016 
  327000    1322.9537   -11128.959   -10718.718    3508.8222  0.058853302   0.06270993 
  328000    1301.6574   -11122.339   -10718.701    3555.3171  0.057494902  0.062643917 
  329000    1321.1566   -11128.382   -10718.698    3601.3183  0.064785346  0.062670685 
  330000    1319.8187   -11127.979   -10718.709    3644.8276  0.065542916  0.062706145 
  331000    1303.9376   -11123.022   -10718.678    3690.9496  0.066632514  0.062754027 
  332000    1323.9878    -11129.26   -10718.698    3736.4049   0.06520663  0.062783577 
  333000    1304.1603   -11123.098   -10718.684    3782.2696  0.064895712  0.062808721 
  334000    1317.2155   -11127.149   -10718.687    3826.1171  0.063779988  0.062820148 
  335000    1317.9616   -11127.362   -10718.669    3871.7692   0.05969809  0.062783845 
  336000    1314.1802   -11126.211    -10718.69    3917.9111  0.059095214  0.062741447 
  337000    1302.5246   -11122.588   -10718.681    3964.4948   0.05900957  0.062699039 
  338000    1301.9728   -11122.421   -10718.686     4011.368  0.060208242  0.062671052 
  339000    1315.3741   -11126.568   -10718.677    4055.2346  0.059230074  0.062632819 
  340000    1319.9714   -11128.016   -10718.699    4101.7248  0.061317483  0.062618365 
  341000    1282.5616   -11116.395   -10718.678    4150.7739  0.051306841  0.062495414 
  342000    1329.3221   -11130.915   -10718.699     4196.112  0.063175231  0.062502724 
  343000    1321.6657   -11128.562    -10718.72    4241.8432  0.061940923  0.062496747 
  344000     1294.844   -11120.217   -10718.692     4286.766  0.059704924  0.062467359 
  345000    1325.1028   -11129.616   -10718.708    4333.1041  0.065135261   0.06249515 
  346000    1301.3067   -11122.238   -10718.709    4379.9855  0.067053617  0.062542145 
  347000    1311.5154   -11125.412   -10718.718    4426.2252   0.05357697  0.062450663 
  348000    1314.9676   -11126.488   -10718.723    4472.1793  0.051056781  0.062335573 
  349000    1318.8333   -11127.703   -10718.739    4520.3712  0.061610019  0.062328318 
  350000    1331.3092   -11131.576   -10718.744    4566.8465  0.066207577  0.062366726 
  351000    1327.8381   -11130.496    -10718.74    4612.2215    0.0697466  0.062439078 
  352000    1308.7438   -11124.552   -10718.717    4656.1374   0.06658792  0.062479358 
  353000    1290.3272   -11118.845   -10718.721    4702.0738  0.068061475  0.062533032 
  354000    1308.6938    -11124.57   -10718.751    4745.2677  0.068902809  0.062593697 
  355000    1323.1348   -11129.043   -10718.745    4787.2046  0.068754678  0.062651819 
  356000    1303.8064   -11123.034    -10718.73    4833.7348  0.064431995  0.062668456 
  357000    1321.7965   -11128.619   -10718.737    4877.0313  0.062850935  0.062670146 
  358000    1318.2432   -11127.524   -10718.744    4920.6974  0.066936765  0.062709289 
  359000    1300.8162    -11122.11   -10718.734    4964.5722  0.063658976  0.062717923 
  360000     1310.741   -11125.202   -10718.748    5009.0928  0.068203896  0.062767346 
  361000    1323.7027   -11129.199   -10718.726    5053.4879  0.059012427   0.06273382 
  362000    1295.5803   -11120.479   -10718.726     5100.298   0.06437701  0.062748362 
  363000    1347.4302   -11136.584   -10718.752    5146.3551   0.06453702  0.062764052 
  364000    1278.8427   -11115.289   -10718.726    5189.9116  0.061937703  0.062756866 
  365000    1313.8932   -11126.164   -10718.732    5234.8928  0.058753928  0.062722358 
  366000     1315.379   -11126.646   -10718.754    5279.1553  0.070929326  0.062792503 
  367000    1317.6965   -11127.352    -10718.74    5325.3682  0.061553912  0.062782006 
  368000    1306.5748   -11123.899   -10718.737    5370.8134  0.064036779  0.062792551 
  369000    1298.5068   -11121.408   -10718.748    5416.2239  0.064563648   0.06280731 
  370000    1299.5375   -11121.738   -10718.758    5461.0511  0.063378903  0.062812034 
  371000    1298.0347   -11121.284    -10718.77    5506.6992   0.06846053  0.062858333 
  372000    1296.6217   -11120.831   -10718.755    5553.4612  0.065287331  0.062878081 
  373000    1345.9019   -11136.135   -10718.777    5599.3506  0.062856946   0.06287791 
  374000    1328.2456    -11130.65   -10718.768    5642.9968  0.071280286  0.062945129 
  375000    1292.1394    -11119.46   -10718.774    5688.1792  0.060217109  0.062923478 
  376000    1322.4398   -11128.878   -10718.796    5734.0504  0.065529091  0.062943995 
  377000    1309.2636   -11124.774   -10718.778    5779.5726  0.064841168  0.062958817 
  378000    1352.6018   -11138.247   -10718.812    5822.3717  0.065306726  0.062977018 
  379000    1295.0571   -11120.388   -10718.797    5870.1593  0.061441494  0.062965206 
  380000    1305.9606   -11123.769   -10718.797    5915.3119  0.054607055  0.062901403 
  381000    1301.6045   -11122.415   -10718.794    5959.8693  0.061152873  0.062888157 
  382000    1327.8348    -11130.56   -10718.805    6007.5522  0.065608107  0.062908607 
  383000    1305.7984   -11123.713   -10718.791    6054.1186  0.063692283  0.062914456 
  384000    1324.4676   -11129.517   -10718.806    6100.1155  0.067082619  0.062945331 
  385000    1312.9426    -11125.93   -10718.793    6146.5491  0.058358377  0.062911603 
  386000    1296.4288   -11120.826    -10718.81      6191.88  0.058239674  0.062877502 
  387000    1268.5962   -11112.194   -10718.809    6240.3399  0.060243355  0.062858414 
  388000    1310.8501   -11125.302   -10718.814    6287.3719  0.059410872  0.062833611 
  389000    1300.6723   -11122.157   -10718.825    6333.2657  0.063720271  0.062839945 
  390000    1315.1171   -11126.646   -10718.835    6379.3049  0.063722496  0.062846204 
  391000    1298.7921   -11121.572   -10718.823    6425.7286  0.060304081  0.062828302 
  392000    1294.3326   -11120.181   -10718.814    6471.5051  0.060199835  0.062809921 
  393000    1325.3902   -11129.834   -10718.837    6516.7434  0.062159827  0.062805406 
  394000    1293.3224   -11119.858   -10718.805    6561.4557  0.061580189  0.062796956 
  395000    1345.9845   -11136.241   -10718.858    6609.3286  0.060293792  0.062779811 
  396000    1347.4795   -11136.708   -10718.861    6655.5751  0.062443485  0.062777523 
  397000    1300.2055   -11122.034   -10718.847    6701.6686  0.070831927  0.062831945 
  398000    1328.7966   -11130.893   -10718.839     6747.712  0.073324265  0.062902363 
  399000     1315.283   -11126.695   -10718.833    6794.3779  0.062334842   0.06289858 
  400000    1327.1618   -11130.393   -10718.846    6837.7907  0.074016625  0.062972209 
  401000    1304.8414   -11123.441   -10718.817    6882.8854  0.070592001   0.06302234 
  402000    1340.1122   -11134.406   -10718.844    6927.6303  0.064929715  0.063034806 
  403000    1356.3614   -11139.458   -10718.857    6974.2097  0.064407925  0.063043722 
  404000    1333.7328   -11132.435   -10718.851    7017.9792   0.06580592  0.063061543 
  405000    1327.4779   -11130.503   -10718.859    7064.0676  0.057320283   0.06302474 
  406000    1320.9463   -11128.488   -10718.869    7111.4112  0.067685112  0.063054424 
  407000    1299.4179   -11121.799   -10718.856    7154.2308   0.06627847  0.063074829 
  408000    1327.3797   -11130.498   -10718.884    7198.7475  0.068325843  0.063107855 
  409000    1307.5124   -11124.319   -10718.866    7243.9172  0.065594904  0.063123399 
  410000    1305.3291   -11123.637   -10718.861    7288.2813  0.067689242  0.063151758 
  411000    1280.8078   -11116.032    -10718.86    7332.0896  0.069395193  0.063190298 
  412000    1322.0978   -11128.837   -10718.861    7376.3103  0.060921978  0.063176382 
  413000    1303.5049   -11123.085   -10718.874    7421.2565  0.066117136  0.063194313 
  414000    1293.3294   -11119.934   -10718.879    7466.9777  0.069244937  0.063230983 
  415000    1324.7365   -11129.681   -10718.886    7510.8541  0.069012369  0.063265811 
  416000    1325.4299   -11129.911   -10718.902    7555.2647  0.066410128  0.063284639 
  417000    1330.2255   -11131.401   -10718.905    7600.5695  0.057719219  0.063251512 
  418000    1297.9331   -11121.343    -10718.86    7645.6057  0.067156653  0.063274619 
  419000    1276.9264   -11114.825   -10718.857    7692.3112  0.053317154  0.063216046 
  420000    1316.7963   -11127.208   -10718.876    7738.8223  0.057258081  0.063181204 
  421000    1313.2969   -11126.127    -10718.88    7781.8383  0.061878817  0.063173632 
  422000    1312.0606    -11125.72   -10718.856    7827.3747  0.058728693  0.063147939 
  423000    1311.5555   -11125.587    -10718.88    7874.8669  0.063392074  0.063149342 
  424000     1315.867   -11126.917   -10718.873    7920.8987  0.065591798  0.063163299 
  425000    1323.4268    -11129.26   -10718.872    7965.3356  0.060545217  0.063148423 
  426000    1315.7245   -11126.858   -10718.859    8009.2082  0.061670597  0.063140074 
  427000    1312.9898   -11126.012    -10718.86    8057.4381  0.061782605  0.063132448 
  428000    1323.3185   -11129.212   -10718.857    8101.8838   0.06284383  0.063130835 
  429000    1311.0285   -11125.424    -10718.88    8147.3047  0.068378207  0.063159987 
  430000    1325.0262   -11129.729   -10718.844    8191.3654  0.062634045  0.063157081 
  431000    1309.8407   -11125.016    -10718.84    8234.9841  0.064653088  0.063165301 
  432000    1310.4054   -11125.202   -10718.852    8281.5279  0.060164029  0.063148901 
  433000    1295.3366    -11120.54   -10718.863    8325.8473  0.063279066  0.063149608 
  434000    1303.4263   -11123.033   -10718.847    8369.9331    0.0689443  0.063180931 
  435000    1330.4978   -11131.458   -10718.877    8415.5277  0.068303194   0.06320847 
  436000    1311.4596   -11125.535   -10718.858    8459.8608  0.066598477  0.063226598 
  437000    1327.0047   -11130.337   -10718.839    8503.8931  0.065765855  0.063240105 
  438000    1316.5099   -11127.097   -10718.853    8547.1801  0.066946103  0.063259714 
  439000    1292.0643   -11119.483   -10718.821    8592.4357  0.065164389  0.063269738 
  440000    1293.7255   -11120.018    -10718.84    8638.6127  0.064902222  0.063278285 
  441000    1306.7146   -11124.021   -10718.816    8683.9863  0.060900519  0.063265901 
  442000    1337.1364   -11133.478   -10718.838    8731.1974  0.064473343  0.063272157 
  443000    1288.9659    -11118.55   -10718.848    8775.9651  0.061521426  0.063263133 
  444000     1328.024   -11130.667   -10718.853    8820.8039  0.066933907  0.063281957 
  445000    1315.4231   -11126.739   -10718.833    8866.6655  0.068202384  0.063307061 
  446000    1298.4225   -11121.485   -10718.851    8912.0448  0.066523877  0.063323391 
  447000    1299.9881   -11121.983   -10718.863    8955.4666  0.068947383  0.063351795 
  448000    1299.1967   -11121.746   -10718.872    9003.6188  0.063338938   0.06335173 
  449000    1319.7281    -11128.12   -10718.879    9049.3639  0.065401552  0.063361979 
  450000    1301.4096   -11122.424   -10718.863    9094.8881  0.067180483  0.063380977 
Loop time of 42599.5 on 1 procs for 200000 steps with 2400 atoms

Performance: 0.406 ns/day, 59.166 hours/ns, 4.695 timesteps/s
98.9% CPU use with 1 MPI tasks x 1 OpenMP threads

MPI task timing breakdown:
Section |  min time  |  avg time  |  max time  |%varavg| %total
---------------------------------------------------------------
Pair    | 42430      | 42430      | 42430      |   0.0 | 99.60
Neigh   | 141.42     | 141.42     | 141.42     |   0.0 |  0.33
Comm    | 13.226     | 13.226     | 13.226     |   0.0 |  0.03
Output  | 0.0060548  | 0.0060548  | 0.0060548  |   0.0 |  0.00
Modify  | 10.41      | 10.41      | 10.41      |   0.0 |  0.02
Other   |            | 4.011      |            |       |  0.01

Nlocal:        2400.00 ave        2400 max        2400 min
Histogram: 1 0 0 0 0 0 0 0 0 0
Nghost:        5325.00 ave        5325 max        5325 min
Histogram: 1 0 0 0 0 0 0 0 0 0
Neighs:         0.00000 ave           0 max           0 min
Histogram: 1 0 0 0 0 0 0 0 0 0
FullNghs:      285018.0 ave      285018 max      285018 min
Histogram: 1 0 0 0 0 0 0 0 0 0

Total # of neighbors = 285018
Ave neighs/atom = 118.75750
Neighbor list builds = 9801
Dangerous builds = 0
print           "Running average thermal conductivity: $(v_kappa:%.2f)"
Running average thermal conductivity: 11.25

# unfix NVT
# timestep .1
# fix NVT all nvt temp ${Tsim} ${Tsim} $(10.0*dt)
# run 100
write_data	Therm_${Tsim}_restartpoint.lammps
write_data	Therm_1300_restartpoint.lammps
System init for write_data ...

Total wall time: 26:35:19
