LAMMPS data file via write_data, version 29 Sep 2021, timestep = 450000

2400 atoms
3 atom types

0 21.267518152066916 xlo xhi
0 31.901277228100376 ylo yhi
0 42.53503630413383 zlo zhi

Masses

1 18.998403163
2 6.938
3 22.989769

Atoms # atomic

1766 2 3.220482014026745 2.832377192859746 4.308440135393354 3 -1 1
1613 1 0.300377790255324 2.894395900993054 0.9935644120949448 1 1 1
487 2 0.8285434448860591 2.8812794802908486 2.9154664295469845 1 3 -1
845 1 2.9488128987399835 3.0692876470333212 2.530672628420144 -1 0 1
2327 1 7.225221362578778 0.9255143124256769 4.1043054947601 0 0 2
1529 1 4.548904862915059 3.996712474422408 0.712790248734347 2 0 1
1383 2 6.404464377789512 3.167374196803578 1.8007066399474498 1 -1 1
623 1 5.144090099642019 0.7804505771813134 0.7836837765791755 1 0 1
1845 1 10.563763013509707 1.920733156283414 42.274450161949524 1 0 1
1119 1 7.89173815090117 2.8025486552580055 0.8698303000203439 0 0 0
1495 2 9.099396240741067 1.5079257594143434 0.1735578825202035 0 1 0
672 2 8.921773584742025 4.223342097803319 0.6019869744006667 3 1 0
1822 1 9.523749221718674 0.06836139436456973 2.235856647831282 0 1 0
10 1 10.227411786166146 2.844107761736553 2.8518171031025714 2 0 0
450 1 13.0977165708502 0.6718959085678624 1.816689291895407 -2 0 0
1854 2 14.468599515257615 30.109554382234787 4.798497041448064 0 0 1
254 2 11.073830876771975 1.4456252739908295 1.846417823551052 0 1 0
2192 2 13.750459116039709 2.5282473087304287 1.5442029087358498 -2 1 1
964 2 15.368329297983644 30.778083603919473 2.2480597455442175 2 0 0
2121 1 15.499668943029405 2.0043442719308575 1.3645039097698552 1 0 2
1402 1 14.870798508660398 31.548722093140494 4.014557612867506 0 -1 0
536 1 17.268680870751133 30.633756249337058 1.653206834153192 1 -2 1
2285 2 16.94952178576885 3.2075969142011713 0.979130074028573 2 -1 2
1689 2 18.13166465677809 30.811904110250094 3.079369418389733 -1 2 0
1936 1 20.248101745847112 3.525687694563334 4.067556483129913 1 -1 2
1168 2 19.687331106882805 1.9410385987755303 3.3884117714074473 0 1 0
2220 1 19.424306309797707 0.38984328671864305 2.3578725576028177 0 0 1
1978 2 3.2498449725918195 4.611037427539561 2.078054264750991 2 0 1
2277 2 1.843042401593593 3.1220552834534594 0.0703890714066468 2 1 1
763 2 2.2471036314902895 6.555199999705099 0.5959029509562983 4 -2 1
2227 1 20.73202570124374 5.736154566148577 41.425870803741596 -1 0 0
1815 1 1.5593102774460366 5.192773459265493 1.2351250884371368 2 -2 1
372 2 0.9219317555883348 6.429544400587313 2.3294155441693296 0 2 1
1108 1 6.167775338707282 4.062017332124189 3.218550110812264 -1 1 1
1595 2 4.840124966736781 7.817349482089632 42.42867837541131 1 2 0
1096 2 5.749024640988142 5.836009260420441 1.602384436738531 0 -1 0
1818 1 7.63473977177581 5.650699363408795 0.16342096370840042 1 -1 1
997 2 10.602682495723533 8.047768910724406 42.37574451992736 -2 -1 -1
881 2 11.201874628795862 4.409249716018076 2.9217030575547085 1 0 -1
2332 1 10.825043819937353 5.01370880900576 1.2497315257420707 -1 -1 1
790 2 13.977261528474935 5.022339706590603 3.215354202522772 0 -1 0
1551 2 13.125081226711474 0.45170894886045404 3.591829749130006 2 -2 0
2212 1 12.990131034236825 3.35631045419819 42.36487742084973 0 1 0
844 1 14.979087252122833 3.8347379205968255 4.716998127080829 2 -1 1
1352 2 17.587547484696167 4.685567026572444 4.537771378174181 1 0 1
211 1 16.463130085270162 6.003167630778338 4.247531787645975 -1 1 1
1408 1 17.144050031719317 3.9687610438841086 2.688572159350893 1 -1 1
1345 1 14.848835010268191 5.462225794540344 1.4386122475079663 0 1 1
1233 1 20.34701015762582 6.710586846611901 1.575166026429281 0 0 0
567 2 20.03320385130042 5.600937846384638 0.3938636764666248 4 0 -1
187 2 20.415726914172687 4.91803316114135 4.9170621227139035 -1 3 0
2350 1 3.9376969664116315 6.52414562462412 1.5477669281469812 -1 0 2
521 1 0.6555096636768785 7.6401926243643885 4.596224299787976 1 2 0
973 2 0.060764457933002884 8.772240452687992 5.669841316281404 0 -1 1
2124 1 20.372603827145362 9.913178675816507 2.2240423835821743 0 1 1
559 2 3.6014514899167342 8.161582077612737 2.2493400956855867 -2 2 0
992 2 2.090126616949386 9.361518443218422 0.17573799527244585 -2 -1 0
1835 1 1.5455825220408552 8.096502469777043 1.5294111382650522 -3 -1 0
2213 1 5.621966392931648 8.51657650767377 1.3144790295716133 -1 0 1
369 2 6.735890467198931 8.54362324037284 2.7733641464705143 5 0 0
643 1 10.12302451130031 7.708107509542587 1.5596208327474668 0 0 -1
106 1 8.516043133477723 9.587295544087791 3.0547600397889947 1 -1 1
1079 2 8.188902645819615 7.221207527179354 1.1377228862306803 -1 0 2
379 2 9.045190634412812 10.805826875998607 1.1446704636770644 0 1 1
1585 2 10.402187689992173 9.577175077098975 2.775303865173013 0 -3 0
1027 1 11.02453128930163 10.970827279385782 1.4332005249680682 0 1 1
2151 2 14.717218634189155 9.369506046617301 0.5618361054297991 -1 0 2
2032 1 12.611725090027681 7.929358893537503 0.5254557660537937 -1 -1 1
1794 2 13.062064087229562 8.704069781502746 2.6550471083051854 2 1 1
2348 1 14.599484682006 9.650009965015514 2.462889893125669 -1 0 1
1864 2 16.60216611497282 5.57257850102296 1.848029391875529 -1 -1 2
1372 2 17.86642093483372 10.424949275376411 42.25494733045437 1 -1 1
2088 2 17.072741429415494 9.572609756419627 2.5653161216484364 -4 0 1
1931 1 16.176390076462518 12.75371284810587 0.1460328179412313 -2 -3 3
1205 1 18.560928103965495 7.776970049995975 3.0251660780694265 -1 0 0
1287 2 19.38649618270715 11.150138991747738 4.218625117739146 -4 1 0
399 2 18.05407226034961 8.195469839417555 4.5006189487693655 1 1 1
2081 2 19.599717409856165 8.10828965639638 1.4874005009591948 0 2 1
885 2 20.509028467441446 7.274834529141053 41.00576820091004 -1 -1 0
316 1 19.159255622855696 8.598948810677483 42.40254339639693 0 1 0
1872 2 5.030321607227612 10.224136377584129 1.5224811222933652 2 0 1
1335 1 3.6210377245319125 10.19111810055145 0.26933928741980645 2 0 1
494 2 1.6890018655063472 15.559372374896737 2.8588812406054 -2 -1 1
1896 2 20.880129027444706 9.60227428590466 0.49058667463196426 -2 0 1
1991 2 0.09426536938646757 14.027783004164919 1.4230862196848475 1 0 0
1210 1 2.3038353065865245 14.449193484154138 1.6790673196150459 -1 -1 2
317 1 3.7141008858010633 10.550931690588403 3.065431032774207 1 1 -1
718 1 6.5787746347375675 11.195694615220129 2.205448221068353 3 -1 1
1497 2 7.038189058444837 12.114235789548095 0.8002603158468382 0 0 1
2073 2 9.981463309157526 13.304549961265048 3.539799702479785 0 -1 0
396 2 11.441982150741271 12.765344654607635 1.4865203702075578 1 -1 0
1741 1 8.966380748487333 12.193783852102728 4.7432520203389315 0 2 0
1770 2 13.719328981766974 11.599331912296522 1.5859502524018732 2 1 -1
709 1 12.881613746846655 13.475642775527872 0.09666925719134764 2 0 0
361 2 14.467156793284486 14.130220092580197 3.595847930597953 0 1 -1
1696 2 16.517769200544294 13.052680295649447 2.988715301458935 -1 2 1
1124 1 14.113460174510772 12.438561917108125 3.164691579027136 1 2 1
337 1 17.867325184576657 11.435612933044515 2.7470864102428605 2 0 0
2188 2 14.73688050182823 14.037645530675928 0.7219693787489404 1 -1 2
169 2 17.148033581256808 14.250914152123961 42.23033017776483 -1 -2 -1
737 1 0.7966067757960981 11.154682226833852 0.313165104545155 0 -1 0
568 2 18.772585029785407 12.63070716415678 1.4630620384126654 -1 0 0
1738 1 3.479172094262114 16.796604787024076 0.10401082337820139 -1 0 0
2275 2 3.8115845317432857 14.860048047547963 0.46505172130365796 -2 -1 0
847 1 21.08417438774491 14.889663942541368 42.38780908987567 2 -1 0
949 1 21.264195823002115 15.618988423964717 2.5853231251076396 0 -1 0
1804 1 6.960616926791727 13.86554898284157 1.2774917554045337 4 2 0
921 1 7.175010734138424 16.615527878706168 2.4843457767509323 1 1 0
1693 2 5.639011503787148 13.389750116642666 2.1776396862187863 -2 -1 0
859 2 5.688463781473374 16.00986777134955 3.862887140760939 -2 1 -1
389 2 11.2608241661772 15.389265924765285 0.7423164949203032 2 -1 -1
2248 1 10.19723315022371 13.963516689935128 1.7866908223556757 1 1 1
338 1 13.045582193271171 15.305570069765253 2.0244436644356685 1 -1 1
1624 1 11.302191682358066 17.02293528195799 3.488492305089975 1 2 -1
2164 2 12.78750499269952 14.521608964980738 41.18993473672556 -2 0 -1
2216 1 13.689285739734391 18.208802538816535 40.54499572169724 -1 -1 -1
2293 2 12.985821442130884 16.61357051057078 3.1672544362610093 -2 0 1
937 1 15.918310757379336 14.6844938710291 2.6818281146114566 0 -2 -1
161 2 18.182510615330557 17.057296083452588 1.329018026995771 -2 0 1
1504 1 16.37160987607381 18.95924799857122 4.287766555702278 2 0 1
259 2 20.83663667839413 16.35787277221818 0.8632928850806953 -2 -2 0
1637 1 19.324557909950762 17.139892866793 42.38039500884245 -1 0 0
304 1 18.05971787240235 16.71393014824216 3.056703027600146 -2 0 1
2195 2 19.750270485205395 15.727065962191698 41.37139793077419 0 1 0
454 2 2.306496815832857 17.804327556289703 0.807672355676546 -1 1 0
1914 1 0.659325327725893 17.897959717196876 0.4872826798979166 1 1 1
484 2 0.6043408864378251 18.658060776604433 2.3275524897636934 2 -1 1
2311 1 2.18528020176509 17.79268896876516 2.731591732253572 0 1 1
1852 2 3.33184084453994 18.810647500598776 3.485813245939145 1 1 1
919 1 7.298067896061451 19.558593456686157 1.986848133693253 3 1 1
1362 2 5.163814740866535 17.174309538960056 0.9729933608876293 1 0 -1
2295 2 8.158628014132534 18.38329125022949 3.8255539746841025 0 2 3
2318 1 9.351957324267971 16.468958322292007 1.0457838879643542 -1 1 1
1868 2 11.34704424964411 17.96944775560946 1.9932724203797862 -1 2 1
1122 1 10.38772374925691 19.678223547304736 1.4656412217574688 0 1 0
2155 2 8.695942419297904 19.023264846447084 1.0456347042766785 2 -4 0
1535 1 13.016014334389206 20.646449994881078 42.46069520641999 0 -1 -1
1252 2 12.449362393698872 17.759189232194625 41.8105824914084 2 0 -1
1277 2 13.98762960517194 21.633434087661247 0.8333887068124157 3 0 1
103 1 15.282685425049825 20.72485440915911 1.9132713468658569 0 0 0
2154 2 14.917607883195055 19.07618581684041 3.6284559970896924 -1 -1 0
269 2 15.427280787302617 18.809935564852637 1.3045207226512758 -1 0 1
1666 2 18.123896557216256 18.647382584217734 3.800451562772298 1 1 0
1977 2 18.767243945543655 20.915165486746595 0.5990399919453095 -1 0 1
528 1 20.68334729292296 20.755350277371853 0.24225824146864247 1 0 0
1609 1 17.718334690143745 19.675140857266566 1.5352435332010042 0 0 1
1866 2 20.31833845340839 19.091492411912903 42.16195821841864 0 -1 1
1552 2 3.524835750988198 20.721819658773775 1.751681796199059 4 0 0
1652 2 2.7858316726069123 24.0031055798594 1.0089542046532824 4 0 -1
1140 1 3.0297912262113367 22.769257034600027 2.5068339994644786 -1 0 0
196 2 1.222596313368542 23.5642110902785 3.22487498826799 0 0 0
150 1 4.183794808700055 20.42462671792501 3.2685886411167355 0 -2 0
1082 2 3.9381595101008555 23.70091697654383 3.5163639617518716 -1 0 0
30 1 4.724890916100066 24.39353385006996 1.0346799498307708 -1 0 0
120 1 9.214073815999939 21.894251826726933 2.4404276327768955 -2 0 0
803 1 5.976522607669983 22.011485430242434 0.6073632066768271 1 0 0
2269 2 10.192367759736648 20.541829660221175 3.1319669016274343 1 -1 0
1162 2 5.79601226923632 20.207728050329212 2.2675296499634774 3 2 1
14 1 11.596853181756796 22.38307818055893 0.9127231891707699 0 1 1
2377 2 11.675600472028162 22.93975682528968 2.6023666286380793 4 3 1
1371 2 11.697866252846644 20.667418591201518 1.0086741173645906 1 -1 1
73 2 16.616146854174712 21.620661970073954 1.087493714888484 -1 -1 0
1135 1 14.368532888151222 22.930853308295937 2.258744670677715 1 -1 1
1669 2 14.871594038249965 24.227888092167635 0.9771331794541546 0 -2 -1
1234 1 15.803946714015355 23.648034888039277 42.151680453419175 0 0 0
1986 2 18.886261679111424 22.592482507864567 3.686629645356238 0 -1 1
456 2 0.022359478483391912 21.424782351869776 2.1190930020670256 4 -2 -1
43 1 18.439476945811858 22.50047681925481 42.41038629601807 1 -1 -2
1729 1 20.56150682813312 22.559191648762628 3.54695560914676 0 0 0
2323 1 17.679951945210806 22.635956776566687 2.186306857960808 0 -1 1
604 1 20.940426764767384 27.185257206554084 1.2613566793901447 3 -1 0
565 2 1.4855389347263344 26.925863695179512 1.78102645223223 2 -1 1
1435 1 2.708999988200383 26.51672973385349 0.6569978642671634 1 0 1
875 2 19.97367074167689 24.921658074155552 2.795313301755278 -5 0 1
397 2 21.046472891711566 26.848201134412676 4.0520935120479065 1 -1 -2
1160 2 4.188845232852733 25.903211890029255 1.6867515225917618 0 -1 -1
1615 1 2.8814614795400626 25.36301564254761 3.049841316894801 2 0 1
423 1 5.008475943175876 27.481145991406457 2.6999877934627694 2 0 0
1601 1 10.740496012843515 27.70367857284285 1.8615860642411433 -1 0 0
1254 2 9.332575719414649 24.17981270658585 2.304242962471139 -1 -1 1
1947 1 8.262317202337547 26.755360667523075 1.7941827900838003 3 0 1
789 2 9.192261186403506 28.32830962321695 2.4803516337907014 0 -3 -2
340 1 8.347470089172415 22.093237478442834 41.43750732278651 1 -1 -1
1840 1 11.103855881100637 24.687605634480782 3.061220537663335 1 0 0
2371 2 11.709464682535902 25.916949693220086 1.9915429895614827 -1 1 3
2236 1 15.583298004552251 25.574806584283223 1.7910785843126327 2 1 1
552 2 16.204398757212136 26.644948595644333 0.500709301147066 1 0 -1
1190 2 17.930022362325328 27.481189959949372 4.3987990616988055 0 -1 1
1793 2 17.5052938881227 24.210488651231543 42.26286793388752 3 0 0
648 1 19.324159216727157 26.312586006462944 3.753403565265537 0 -1 0
759 2 17.350474592553216 24.710570175592004 2.604516942433729 -2 0 -1
1748 1 18.826118124257903 24.73543224502252 1.5427536245417217 0 -1 1
1832 1 3.7424226973735717 29.815701947445795 0.7941831552081771 0 0 2
1731 1 2.2284960310410717 27.86380131435503 3.257113700911122 1 -1 -1
1707 1 0.9175778747230706 30.55510911611195 1.2723037962991604 0 -2 0
2200 2 3.6614098860778803 0.8907490581853624 1.7987924332018876 1 1 2
2071 2 6.054805515893358 28.843117773028272 3.4603528481164196 -1 -1 2
2250 1 3.3694956411465893 31.200588856859795 3.1022978278203306 0 0 0
298 2 7.079392545462918 31.563184094525816 0.8131425939135808 3 0 -1
1314 1 6.6747892492972305 30.29413208031969 1.9450514756752286 0 1 0
1164 2 5.666154913476662 28.946395570524217 1.0911190907441617 2 -2 1
2193 2 8.191756789865714 30.840992218082903 2.8614833102258026 0 0 1
889 2 7.309085644280078 26.78663211689571 42.320921134680596 0 -4 0
705 1 8.950974352807444 29.607468145814522 3.6105017170822666 1 0 1
1723 1 11.799630100930964 30.103492880748867 2.1467246443038284 2 0 1
941 1 13.308096028928311 28.00624834558554 41.85192233824325 -1 1 0
1455 2 12.708352025969344 28.61848658010521 2.8675340682472674 -3 -1 2
2390 2 10.671246881247948 31.017967637468608 3.465219410605682 -1 0 1
327 1 14.371973578533217 29.161675089182786 2.524572830327649 0 0 0
742 1 17.830965690706915 27.170656026580293 1.2901587538931314 -2 -2 1
1708 1 14.699852417225648 30.86901472654662 0.2479271302626167 0 0 0
2255 2 14.601735598331885 29.11589220177568 42.082615840303305 -2 2 -1
1682 2 0.06265167010502591 0.15541075139091318 1.8228478866956976 0 0 1
1033 1 1.089479531023959 0.9330574446548027 3.1424221314883196 1 2 1
1661 2 18.780091856007548 31.403195062092067 0.8522586037065337 -3 1 0
1941 1 19.35308467078645 29.6621748168781 0.29744705080204836 1 0 1
1663 2 17.66312947541048 28.996602466213833 0.6685407552454078 2 -3 0
3 1 1.3792575756148364 2.4652755431644433 5.440312510135143 -1 1 1
1232 1 2.850582430013071 0.710939788718301 7.385840708847087 0 0 1
58 2 0.13704542240324713 2.219280832163426 7.365557005757376 0 2 -2
1589 2 6.893934495101995 2.2895589107144927 4.991929640520827 2 -1 0
1057 2 2.092750575463284 31.09694545551232 7.489139278842098 2 -1 0
936 1 4.426261667104705 1.3198850929249248 4.9641838737664745 2 0 1
425 1 8.64380963985441 2.691755215141397 5.549623731757315 1 1 0
261 2 9.06637196121488 1.7531996048169258 3.956939735186063 1 0 0
1013 1 9.768354491226686 4.185711597005641 7.092783730511367 -1 2 0
2119 1 9.111883713376935 31.579696526234304 5.7764516944115725 2 1 0
2105 1 13.563517046240843 1.6214334546808646 5.744726906075825 -1 1 1
2064 2 9.746655120782497 1.983475841400074 6.94987370033936 0 -1 1
631 1 11.789016198455911 0.00834618796670128 4.630383649971308 1 0 -1
696 2 14.690958461716324 0.5094041526177305 5.893252403585256 -1 -2 0
1151 2 17.638407095390928 0.42881245148572206 6.020828417783334 0 -1 1
330 1 16.136503376704496 1.147795634799918 6.690023700099863 -1 0 0
710 1 18.133560708514096 1.9494368969254285 4.555580412820017 -1 0 0
189 2 17.202441965028896 4.392435166812434 8.244309339144603 1 2 1
84 2 18.759598459159076 3.022541706589984 5.990835275604553 -1 -1 0
927 1 1.3724871487676582 5.535213905648288 4.190087249188835 4 0 0
1757 2 1.6438265103215381 4.620369241149598 5.46591155468755 1 0 1
1788 2 2.4820395716270722 7.1699897531817856 4.947068796258641 0 0 1
1243 1 18.867247628475855 5.8958628158100055 4.708149579953422 0 1 0
1568 2 4.506169503215022 7.493558963342854 7.602476234235454 0 1 3
1419 1 0.08547132735095678 4.943950276680459 6.394987690229663 1 1 1
1300 2 19.865164802868357 7.045129204443797 3.7648982513863025 -3 -1 0
1307 1 3.6165040185034156 4.077057573839862 5.425806402988859 0 -1 0
1448 1 7.532140274340411 5.324760679915526 4.96995244923536 0 1 0
1677 2 5.135111424203278 5.547648752485859 4.511619004018831 -1 1 0
1950 1 4.1676017793023705 7.195221740846986 3.9570498665241405 -1 -1 1
1061 2 4.5411792290296 4.560772728454803 6.865455223795215 -1 3 -1
2021 1 10.08481278158533 6.043201169736591 3.7738241051990102 -1 0 0
1856 2 11.41027917758616 6.728284136932926 1.9771274380231276 1 -1 0
2365 2 9.966091377180295 4.5225579599150345 5.424578074669047 3 1 1
68 2 8.391492960017075 6.28621168701414 3.93787764124867 3 -1 1
105 1 11.545102361548206 1.7718211289545305 7.558175401249029 2 0 1
8 1 11.64902184434957 4.176061961039199 5.037927308421567 -1 1 -1
1959 2 11.606637530036393 3.4913767564492173 7.10683299216823 0 1 1
2389 2 13.179727036726442 2.978374358420262 4.628334983241534 4 -1 0
1796 2 16.689868711529176 2.2263885796904814 3.4043112944669702 0 0 0
907 1 12.775460831658927 3.838085753516946 2.5991823602223736 -1 -1 0
1573 2 15.452890637952498 5.396676733481352 5.97034882722523 1 -2 1
1429 1 17.461936260044432 4.184714156529098 6.52236422107179 -2 0 1
837 1 19.542678297259602 1.7081791634565027 7.004468331177144 1 0 0
2079 2 17.98866601557466 6.408695114341678 6.393704478954282 -2 1 1
115 1 3.013106653326771 8.313958962164243 6.379058196624319 2 0 0
1477 2 2.8387389448308618 9.802587548986898 7.133121992856735 3 0 1
2015 1 0.7646766721668976 10.858543489018244 4.656574438428268 -1 -1 0
1805 1 6.062559214791889 9.237589221808898 4.228832882274453 0 0 2
975 2 4.210918994409885 8.791713194502275 4.760610365371791 2 2 0
405 1 5.24887758923242 6.484836143581323 6.495266720995021 -1 1 -1
303 1 7.042295551310352 6.57327967484518 2.8269134626984997 2 1 -1
2122 1 12.950909716819435 6.723775842281016 3.1330741226085435 1 -1 1
2268 2 11.34849843902261 7.15915102371439 4.383788715343471 -1 -1 0
1330 1 8.909519275352459 10.52461859182187 6.653775809564615 0 1 1
394 2 7.929759505713833 9.528340278283688 4.7157846168009305 2 -1 0
667 2 12.438257702433198 9.34882033974554 6.6465531872433194 2 -1 0
708 1 11.756755820521187 7.311641338255866 6.200987762681543 1 -1 -1
944 1 11.891418934613016 9.265925950630912 4.107993278856934 3 1 -1
1712 1 14.233819054450036 10.64277357007471 5.533643402173994 2 0 0
1778 2 15.014931721391447 10.910603243600708 4.028565690747069 -2 -1 1
1226 1 16.293841694531707 7.541268110943206 6.748710036070432 -3 0 0
2127 1 16.704928107541196 9.256449252786096 4.3165038520190375 0 -1 1
2120 1 16.281914061264153 13.788093104502062 5.424494259879802 -1 -1 0
2218 1 21.260205122058288 9.297487436258036 7.135683629007338 0 1 1
1324 1 19.30349904005926 8.500526706632458 5.721744357100832 2 -2 1
1790 2 0.41588800791124053 11.049957184545878 2.3321848164752508 0 2 0
982 2 19.519010960958845 9.076588596974164 7.532633715554126 -2 -2 0
2150 1 3.796489298747703 10.64770741171404 5.603981008389753 1 0 0
1817 1 1.154805482478024 13.301979791887918 6.064935241990953 -1 0 2
267 2 0.2946909725543644 14.725781895017796 5.502193405032195 0 -1 0
2097 2 2.5705147689091317 11.024884545127914 4.534857322823524 1 -2 0
2194 2 2.814196296657073 15.037461021512826 7.177648397157047 -1 1 -1
2271 2 5.720514627452271 11.072920993341288 4.1562623928237965 0 -1 0
11 1 6.463054884905207 12.197223544872568 5.456520497342383 -2 0 0
1747 1 4.00768774024857 14.17533507108825 6.381167100245194 0 -2 1
1688 2 7.846883798910398 11.85563769732086 6.631667623328156 -1 0 1
1489 2 4.986062127063757 12.017428070887991 6.451215526755276 3 1 0
596 2 10.33989103791534 12.280960860008404 5.7849408277553085 2 0 -1
1485 2 7.294007474544569 13.62108586477047 4.949010500873478 0 0 -1
749 1 9.140953866802032 13.253634486294626 7.228790827914339 -1 1 0
442 1 11.497297418517812 12.955764194278894 4.377016411033459 0 0 -1
74 2 12.897707696734491 12.23212558693854 5.386127688762093 -3 -1 1
88 2 12.529528442529264 12.439507582699466 8.360145832453469 0 1 0
917 1 11.816130655284113 11.188150409026244 6.645564697489351 1 -1 0
127 1 13.71790423378696 13.998243986706386 5.8930024012509 1 -1 0
913 1 18.521050895417066 14.042781973321723 3.9891936787375393 -3 0 1
2172 2 15.894698126596824 15.118304500431798 6.596113265036645 0 -4 1
283 2 19.063858295745558 14.945786483044165 2.5807703681210374 -1 0 -1
1724 1 20.990856483840318 12.680952216099355 2.812397299475111 -1 0 0
2137 1 19.05494507054857 11.670181661808506 5.826149494180538 -1 -1 1
1597 2 21.23323415646745 11.35296753948099 6.268317431864726 0 1 0
1558 2 2.6044518879651166 17.113366229297792 5.077860603442866 3 0 0
1230 1 2.2090453170212463 15.427854940057571 4.576468399939357 -1 0 -1
535 1 1.063557365702258 18.16326121796382 5.907072835398966 0 1 0
2190 2 3.196919093436607 14.019894029348784 4.653462612470902 0 -1 0
228 1 4.807860884380692 14.369211928209271 3.1562900914056655 -1 -1 -1
598 2 4.552497314278617 20.46816303283475 5.349891862267249 2 1 -1
489 2 8.849304601347827 15.722458317227291 2.7250881178029442 1 1 0
1819 1 8.871691789489189 14.592663747045568 4.201886276124435 -1 0 1
1492 2 11.007167119093236 17.947659190207958 5.006109102240817 -2 -2 1
2249 1 6.87716022121245 14.487803270678267 6.5494885637227735 1 1 0
1810 1 8.870785591987033 15.990956695398916 7.890236991391693 0 -1 0
2384 2 12.37752999519723 14.880537257618489 4.829833989476373 -1 3 0
1686 2 9.591439318435157 15.037835806377808 5.955258114057242 1 -1 1
615 1 11.236814098398547 15.918001121980996 6.09624052514729 0 -2 0
2068 2 14.303658798478383 16.99459596511935 5.600054052239026 -3 0 0
1806 1 13.708925720127523 15.89564655339732 4.514965645293984 0 -1 1
1646 1 16.331091254329948 16.3424215864963 5.513911374334136 2 0 0
1967 2 13.031437497428238 21.178171211291716 4.749145464851518 0 -1 1
236 1 20.2432346361863 18.69249111354079 3.2936481234259425 -2 0 0
757 2 20.620395309451993 16.848765141704508 3.93016040927493 0 -2 1
137 1 20.17387718368908 16.159949140633074 5.414483046692143 0 0 0
659 2 16.59123037932874 15.846323631641976 3.822132877042694 -3 0 0
2115 1 20.092822633776485 18.04868441582629 9.331243621256656 1 -1 2
1180 2 18.634557063338175 15.41141144391667 5.681613175309014 1 0 -1
446 1 18.647419354513055 18.377862961392616 5.68153600547973 2 0 0
170 2 3.025423225243089 18.40885098651414 9.622654176955187 3 1 0
905 1 7.30140715431475 17.24042063396262 5.131903852336518 0 -1 0
939 1 4.488430097297362 17.15496285987467 4.653982984125318 -1 0 2
2361 2 6.4259804918395025 22.75356500639217 4.8573462430513255 0 2 0
925 1 2.7836455327440794 20.25531125206789 5.436433052167299 -1 0 -1
1225 1 9.594113544474006 18.953614059173223 4.196895716571374 0 -1 0
1659 2 8.432915077113831 19.996850676632704 6.236833070198783 0 -1 0
1034 1 6.67899705856405 19.73160378817491 4.606063079851783 -1 0 1
768 2 10.736428769894069 21.627107065855117 6.7461288533777575 1 0 1
732 1 14.729896360491066 17.72521613703859 2.4461668225739985 -1 0 0
2007 1 11.946685987845953 22.039299920824675 5.611766936364013 0 -1 1
1229 1 13.352549832639152 17.174835053080987 7.2194143787329494 0 1 1
1204 1 13.521569123167867 18.753849318064326 5.112307430547644 -1 0 0
564 2 12.676523193485098 18.799974302371627 6.825229618648721 2 1 0
1657 2 18.486742637166998 20.175915558920344 6.155232189431214 -2 0 0
1147 1 17.781227714598533 21.453112874663024 4.5915621484555125 1 0 1
611 1 17.498450942547375 20.895714511452752 7.98515390113856 -2 0 -1
692 2 20.672346696813726 19.04327674771507 5.127816332818677 -2 2 0
1564 2 17.033429240001997 17.632859097012382 6.231169875535796 0 -1 1
1863 2 1.5227693615287201 20.1218771623015 6.572326074082659 0 -1 0
1150 1 1.298560377717305 20.303596349718934 2.9059533116909475 -2 -1 0
620 1 0.831254143076835 22.08689108752301 7.436460112503348 1 -3 0
72 2 21.143731046245172 22.49729006873586 5.247311900220855 1 -2 -1
580 2 2.51925628533431 21.4072884332152 4.283907565365552 -1 1 0
1512 1 1.5944803203953337 22.97292701452759 4.871861066199995 1 0 1
1098 2 6.184974947215407 25.25880459963363 6.006992825879341 -4 0 1
730 1 6.012312433580214 22.449447040219003 2.968831697038623 3 -1 0
314 1 9.13715786806259 21.294720824718482 5.437925893455377 1 1 0
495 2 7.633215391195527 21.11731246342464 3.984391490747693 -1 1 1
274 2 14.589575511854271 23.33201762050982 3.9860723706834325 -1 -2 1
1422 1 12.075798269350274 21.12952304611232 2.944751010171348 -2 0 1
1259 2 10.405935113143078 24.104907370951423 4.888629798025513 -3 0 1
1614 1 12.474337864834574 24.196674162014773 8.481568385848563 -2 0 0
2024 1 9.856788610504298 23.601077278952822 6.800209716767951 -1 0 1
1066 2 16.57935529424247 21.275994890049088 3.330343212089275 0 1 1
1329 1 14.661719488120566 22.19520925040608 5.391255514687691 0 -1 0
1328 1 17.278345665192465 24.300991980475224 4.300668293685879 -1 0 -1
2198 2 16.554082677447397 22.57662403697888 6.157231046954435 -1 0 1
1120 1 13.941734227819667 24.83690305145231 4.830651460758715 1 -1 -1
1453 2 19.781993745042424 22.284326031236933 7.576241793012635 -2 2 0
1438 1 20.19658978130812 20.875567279124475 6.024339593284169 -2 0 0
53 2 2.0037711820207926 25.310859850792333 4.591218965094439 0 -1 1
448 1 3.152577207838887 27.841687068843175 5.716841605850568 1 -1 0
1526 1 0.47032267310111786 25.46506439731456 3.16290022947192 2 -2 -1
1146 1 21.195588275466545 28.41196561293174 4.948690473851909 1 0 0
965 2 3.597175879097438 26.727539612973654 3.738441863671661 0 1 -1
814 1 5.403647305997634 25.263414286938882 4.13822784993698 0 0 0
273 2 6.941484336194132 23.194030211414127 1.6144815710214937 0 -1 1
703 1 8.125988357149085 25.68199154563067 7.1973663764719085 3 -3 0
1465 2 6.7090922118796446 26.244579939814003 3.3180904391698474 -1 -1 -1
1716 1 8.515105724796216 24.57159599181309 3.9473146568768747 0 1 0
877 2 12.125639869453558 26.404270858848186 4.39551378072891 3 0 1
192 2 9.949042414471867 24.905401829706154 7.772200857043466 1 0 -3
740 1 11.692507889374616 25.377299476770574 5.810549722692967 1 1 0
1469 2 13.424726561203187 24.97188033783565 6.733225259744917 0 0 2
1198 2 11.669840661561047 27.26941283495258 6.695882435359235 0 1 -1
240 1 13.464648493857384 26.51578259236357 2.7554166354684395 -3 0 1
1083 2 15.607869878141667 26.773274400834747 9.244744920536393 -1 0 1
892 2 14.849477891949512 25.733134456826843 3.608011168214603 0 1 1
642 1 16.46281742403554 26.843656485138553 4.453010330735488 -1 0 0
2131 1 17.88007720088376 25.45440537804451 6.898896143822387 1 -1 0
1578 2 19.060206445850707 25.21645317005176 5.108408004421134 -2 -2 1
1136 1 20.311149867942056 24.014871755956023 6.0702931622951395 1 0 1
2098 2 18.771299471557995 24.906052258662072 8.150523289756137 -1 0 1
1549 1 18.318183928785388 28.315602556369054 5.849097027500693 3 -1 0
368 2 1.842382651422357 0.10667589605186291 4.487629971548116 4 1 -1
309 1 1.9936443554948353 30.554914995132165 5.732047622206167 3 -1 0
2257 2 1.7913953821240727 28.774494982514355 4.797596733064122 1 0 0
1875 2 0.2160658278155137 30.371078987231467 6.592966165597074 -3 -1 -1
1878 2 2.653181560625091 29.722899636449075 2.281109032812541 -2 -3 2
1457 2 5.144083851379807 31.6142486095538 4.353467059048397 0 -2 0
118 1 7.22015152825409 27.31862377564371 4.884605805060064 2 0 1
1454 2 8.721169042232727 31.179069141947632 7.642276150432089 -1 -1 1
1913 1 6.038077567616474 0.1040956414882802 8.05153829787158 1 0 0
385 2 4.667432944917185 29.43989936396549 6.8309025228047675 2 0 1
1710 1 9.77690207035521 27.07595958382306 5.59780821559288 0 0 1
1865 2 9.87690644401683 28.68411366914231 5.9535635982977295 1 -1 1
1212 1 5.972546700486719 29.97125506364805 4.859043027754822 2 -1 1
2272 2 7.276313165036049 30.470339490224017 6.057095693854456 -2 -2 1
1803 1 8.540309887439053 29.25869335228658 7.117434275876507 1 -1 0
1802 1 12.195989052851937 28.459664783343943 5.098451415567019 -1 0 0
589 2 11.583794282519953 31.57590440748136 6.454585544819667 4 -1 0
638 1 12.180863562263777 28.183267683865434 7.978985626567815 2 -1 0
1264 2 17.003612464508432 29.662917311191233 5.976986264014497 -1 -2 1
1024 1 15.146493659157281 28.874738652692653 5.794353920653377 0 0 0
1482 2 15.226569662079088 28.016325362670266 3.8108505182174532 -1 0 0
2393 2 19.97384773022714 28.571392861035203 7.766982773920819 0 0 1
299 2 19.388933004911898 29.44078046931573 5.017502561621018 -1 0 -1
1642 1 19.081521093531844 29.37689808288356 3.29859300771362 0 0 0
548 1 19.89344762444374 30.119309374515353 6.839298684900227 2 2 -1
218 1 0.21279622259724051 31.315471515155334 8.151205576415135 1 -2 1
1844 1 1.3125609250999308 2.8714401743112257 8.654233173787079 0 1 0
1563 2 1.82520303962087 0.9819516051929326 9.317106552861297 0 -1 1
2149 1 0.5108016886595171 1.7946650924930152 11.597492227356152 2 0 1
2394 2 3.4425540677413933 1.290061009588805 14.200234156706037 -2 2 2
1908 1 5.527703623276115 0.309523619762813 10.73900606350131 1 1 0
918 1 5.822426904746203 2.956141917629467 6.206068620223824 2 0 1
488 2 3.488394603260085 2.1962671610888687 6.653505251221566 1 2 1