FLiNa to FNa ratio: 1

100 atoms 
0  bonds
0  angles0  dihedrals
0  impropers

3 atom type
0  bond types
0  angle types
0  dihedral types
0  improper types

0.0 11.340153893369852 xlo xhi
0.0 11.340153893369852 ylo yhi
0.0 11.340153893369852 zlo zhi

Masses

1 18.998
2 6.941
2 22.99

Atoms

1 1 37.656 -245.035 104.675
2 1 -109.711 125.455 168.27 
3 1 -25.282 108.458 -29.208
4 1 8.363 164.122 117.226
5 1 -113.987 239.202 -24.917
6 1 -12.301 285.705 78.931
7 1 -200.938 259.11 -84.803
8 1 -12.106 177.513 61.385
9 1 88.039 -42.341 8.865
10 1 128.4 60.023 -39.582
11 1 67.504 -55.338 55.102
12 1 158.811 335.293 40.315
13 1 -95.128 69.761 -153.725
14 1 -10.969 6.687 115.206
15 1 83.652 4.411 -48.414
16 1 200.099 74.08 87.875
17 1 5.852 216.977 80.283
18 1 190.462 -56.794 -11.696
19 1 -62.1 -154.47 -23.986
20 1 106.842 -17.437 4.919
21 1 22.334 33.174 85.507
22 1 304.702 -87.894 -140.679
23 1 169.833 160.413 296.814
24 1 -15.889 286.825 20.476
25 1 312.763 53.04 16.688
26 1 132.5 157.542 177.07 
27 1 -46.002 -87.786 -1.321
28 1 135.991 -7.285 4.935
29 1 65.753 89.52 156.037
30 1 80.066 125.273 147.827
31 1 -30.23 7.849 178.983
32 1 -25.404 -46.412 -61.852
33 1 77.319 5.367 -143.014
34 1 -84.105 -2.742 73.264
35 1 132.91 -34.85 283.894
36 1 171.024 -31.258 -170.096
37 1 105.668 -64.243 -8.135
38 1 197.522 -22.984 64.865
39 1 88.11 294.895 176.021
40 1 -103.723 -70.363 10.115
41 1 52.057 37.868 -57.898
42 1 228.078 -55.277 37.92 
43 1 -24.197 -24.674 36.949
44 1 90.196 -79.639 78.441
45 1 132.155 217.516 -8.137
46 1 250.353 130.961 28.941
47 1 31.414 214.774 136.27 
48 1 23.191 -108.299 -246.62 
49 1 -1.945 122.856 72.923
50 1 44.49 115.531 260.876
51 2 108.257 87.993 0.908
52 2 24.898 -49.705 -10.421
53 2 319.271 120.027 24.596
54 2 -185.341 256.419 -197.653
55 2 256.574 139.824 -120.924
56 2 -76.263 -128.14 114.879
57 2 26.983 16.777 -84.108
58 2 -43.159 95.052 -99.711
59 2 -7.85 244.413 118.059
60 2 4.656 165.225 -188.076
61 2 274.932 -90.084 137.387
62 2 -35.515 0.843 -127.116
63 2 -10.742 84.632 35.037
64 2 87.049 333.151 241.72 
65 2 -108.694 128.701 146.276
66 2 -72.747 -20.715 -48.238
67 2 -7.9 194.558 -186.868
68 2 -109.422 -51.535 279.748
69 2 -38.157 -64.957 -70.447
70 2 183.329 -46.884 -156.121
71 2 -66.017 182.491 124.257
72 2 -149.273 179.033 216.907
73 2 -29.191 29.999 193.761
74 2 -40.355 126.794 98.957
75 2 39.627 153.295 336.327
76 3 106.316 -124.263 198.826
77 3 -1.724 107.809 93.062
78 3 115.04 34.75 -89.27 
79 3 27.708 -213.993 -22.989
80 3 39.887 -85.021 136.958
81 3 101.709 125.217 159.747
82 3 70.175 -70.445 207.089
83 3 388.122 264.049 -209.134
84 3 -4.194 109.717 17.88 
85 3 22.559 103.994 124.528
86 3 292.128 -11.171 92.115
87 3 -62.266 -166.035 47.461
88 3 1.284 188.412 370.302
89 3 23.71 207.937 216.219
90 3 -211.431 333.556 23.774
91 3 11.963 15.288 360.983
92 3 64.847 354.048 256.99 
93 3 212.139 96.614 -45.186
94 3 -74.893 -79.396 -86.248
95 3 24.551 -24.864 178.12 
96 3 237.963 37.825 -1.26 
97 3 83.94 318.867 146.228
98 3 200.745 -365.1 414.684
99 3 64.338 279.183 97.061
100 3 119.48 99.954 65.574