LAMMPS (29 Sep 2021 - Update 2)
OMP_NUM_THREADS environment is not set. Defaulting to 1 thread. (src/comm.cpp:98)
  using 1 OpenMP thread(s) per MPI task
# lmp -in therm.lammps
# Muller-Plathe method via fix thermal_conductivity

# conda activate nequip_cuda10.1
# export CUDA_VISIBLE_DEVICES=2
#   lmp -in run_therm_1400
# nohup lmp -in run_therm_1400 > therm_1400_job.out #job =8154
# 1) Initialization
units metal
dimension 3
newton off on
atom_style atomic
boundary p p p



# 2) System definition
read_data	Therm_1400_restartpoint.lammps
Reading data file ...
  orthogonal box = (0.0000000 0.0000000 0.0000000) to (22.680308 34.020462 45.360616)
  1 by 1 by 1 MPI processor grid
  reading atoms ...
  2400 atoms
  reading velocities ...
  2400 velocities
  read_data CPU = 0.014 seconds

# 3) Simulation settings
pair_style	nequip
pair_coeff	* * FLiNa_f_pyt10.2 F Li Na #Li F Na

# 4) NPT:
thermo 1
minimize 1.00e-9 1.0e-9 1000 10000000
WARNING: Using 'neigh_modify every 1 delay 0 check yes' setting during minimization (src/min.cpp:188)
Neighbor list info ...
  update every 1 steps, delay 0 steps, check yes
  max neighbors/atom: 2000, page size: 100000
  master list distance cutoff = 7
  ghost atom cutoff = 7
  binsize = 3.5, bins = 7 10 13
  1 neighbor lists, perpetual/occasional/extra = 1 0 0
  (1) pair nequip, perpetual
      attributes: full, newton off
      pair build: full/bin/atomonly
      stencil: full/bin/3d
      bin: standard
Per MPI rank memory allocation (min/avg/max) = 5.108 | 5.108 | 5.108 Mbytes
Step Temp E_pair E_mol TotEng Press 
       0    1408.2207   -10516.249            0   -10079.567    13326.516 
       1    1408.2207   -10584.996            0   -10148.314    13326.516 
       2    1408.2207   -10664.974            0   -10228.291    13326.516 
       3    1408.2207   -10721.136            0   -10284.453    13326.516 
       4    1408.2207   -10764.204            0   -10327.522    13326.516 
       5    1408.2207    -10796.87            0   -10360.188    13326.516 
       6    1408.2207   -10821.758            0   -10385.075    13326.516 
       7    1408.2207   -10840.646            0   -10403.964    13326.516 
       8    1408.2207   -10850.489            0   -10413.807    13326.516 
       9    1408.2207   -10858.925            0   -10422.242    13326.516 
      10    1408.2207   -10866.134            0   -10429.451    13326.516 
      11    1408.2207   -10872.473            0    -10435.79    13326.516 
      12    1408.2207   -10878.171            0   -10441.489    13326.516 
      13    1408.2207   -10883.459            0   -10446.777    13326.516 
      14    1408.2207   -10887.792            0    -10451.11    13326.516 
      15    1408.2207   -10893.055            0   -10456.372    13326.516 
      16    1408.2207   -10896.301            0   -10459.618    13326.516 
      17    1408.2207   -10902.462            0    -10465.78    13326.516 
      18    1408.2207    -10904.91            0   -10468.228    13326.516 
      19    1408.2207   -10910.035            0   -10473.353    13326.516 
      20    1408.2207   -10912.312            0   -10475.629    13326.516 
      21    1408.2207   -10915.664            0   -10478.982    13326.516 
      22    1408.2207   -10918.622            0    -10481.94    13326.516 
      23    1408.2207   -10922.114            0   -10485.432    13326.516 
      24    1408.2207   -10925.327            0   -10488.645    13326.516 
      25    1408.2207   -10928.428            0   -10491.745    13326.516 
      26    1408.2207   -10930.768            0   -10494.085    13326.516 
      27    1408.2207   -10932.572            0    -10495.89    13326.516 
      28    1408.2207   -10935.047            0   -10498.365    13326.516 
      29    1408.2207    -10936.84            0   -10500.158    13326.516 
      30    1408.2207   -10938.586            0   -10501.904    13326.516 
      31    1408.2207   -10940.825            0   -10504.143    13326.516 
      32    1408.2207   -10942.884            0   -10506.201    13326.516 
      33    1408.2207   -10945.246            0   -10508.564    13326.516 
      34    1408.2207   -10947.066            0   -10510.384    13326.516 
      35    1408.2207   -10949.288            0   -10512.606    13326.516 
      36    1408.2207   -10951.606            0   -10514.924    13326.516 
      37    1408.2207   -10953.577            0   -10516.895    13326.516 
      38    1408.2207   -10955.054            0   -10518.371    13326.516 
      39    1408.2207    -10956.76            0   -10520.077    13326.516 
      40    1408.2207   -10958.122            0    -10521.44    13326.516 
      41    1408.2207   -10959.354            0   -10522.672    13326.516 
      42    1408.2207   -10960.675            0   -10523.992    13326.516 
      43    1408.2207   -10962.082            0     -10525.4    13326.516 
      44    1408.2207   -10963.475            0   -10526.792    13326.516 
      45    1408.2207   -10964.515            0   -10527.832    13326.516 
      46    1408.2207   -10965.934            0   -10529.251    13326.516 
      47    1408.2207   -10966.805            0   -10530.122    13326.516 
      48    1408.2207   -10967.662            0    -10530.98    13326.516 
      49    1408.2207   -10968.343            0    -10531.66    13326.516 
      50    1408.2207   -10969.011            0   -10532.328    13326.516 
      51    1408.2207     -10970.1            0   -10533.417    13326.516 
      52    1408.2207    -10971.26            0   -10534.577    13326.516 
      53    1408.2207   -10972.124            0   -10535.442    13326.516 
      54    1408.2207   -10973.079            0   -10536.397    13326.516 
      55    1408.2207   -10973.569            0   -10536.887    13326.516 
      56    1408.2207   -10974.329            0   -10537.647    13326.516 
      57    1408.2207   -10975.465            0   -10538.783    13326.516 
      58    1408.2207   -10976.419            0   -10539.737    13326.516 
      59    1408.2207    -10977.23            0   -10540.548    13326.516 
      60    1408.2207   -10977.824            0   -10541.142    13326.516 
      61    1408.2207   -10978.365            0   -10541.683    13326.516 
      62    1408.2207    -10979.08            0   -10542.398    13326.516 
      63    1408.2207   -10979.639            0   -10542.956    13326.516 
      64    1408.2207    -10980.28            0   -10543.598    13326.516 
      65    1408.2207   -10980.931            0   -10544.248    13326.516 
      66    1408.2207   -10981.632            0    -10544.95    13326.516 
      67    1408.2207   -10982.161            0   -10545.479    13326.516 
      68    1408.2207   -10982.723            0    -10546.04    13326.516 
      69    1408.2207   -10983.093            0    -10546.41    13326.516 
      70    1408.2207   -10983.563            0   -10546.881    13326.516 
      71    1408.2207   -10984.189            0   -10547.507    13326.516 
      72    1408.2207   -10984.612            0    -10547.93    13326.516 
      73    1408.2207   -10985.372            0    -10548.69    13326.516 
      74    1408.2207   -10985.756            0   -10549.074    13326.516 
      75    1408.2207   -10985.984            0   -10549.302    13326.516 
      76    1408.2207   -10986.433            0    -10549.75    13326.516 
      77    1408.2207   -10986.723            0    -10550.04    13326.516 
      78    1408.2207   -10987.104            0   -10550.422    13326.516 
      79    1408.2207   -10987.847            0   -10551.164    13326.516 
      80    1408.2207   -10988.455            0   -10551.773    13326.516 
      81    1408.2207    -10988.91            0   -10552.228    13326.516 
      82    1408.2207    -10989.52            0   -10552.837    13326.516 
      83    1408.2207   -10990.107            0   -10553.425    13326.516 
      84    1408.2207   -10990.693            0   -10554.011    13326.516 
      85    1408.2207   -10991.314            0   -10554.632    13326.516 
      86    1408.2207   -10991.758            0   -10555.075    13326.516 
      87    1408.2207   -10992.213            0   -10555.531    13326.516 
      88    1408.2207   -10992.695            0   -10556.013    13326.516 
      89    1408.2207   -10993.074            0   -10556.392    13326.516 
      90    1408.2207   -10993.404            0   -10556.722    13326.516 
      91    1408.2207   -10993.748            0   -10557.066    13326.516 
      92    1408.2207   -10994.039            0   -10557.357    13326.516 
      93    1408.2207    -10994.26            0   -10557.577    13326.516 
      94    1408.2207   -10994.617            0   -10557.935    13326.516 
      95    1408.2207   -10994.838            0   -10558.156    13326.516 
      96    1408.2207   -10995.045            0   -10558.363    13326.516 
      97    1408.2207   -10995.416            0   -10558.734    13326.516 
      98    1408.2207   -10995.839            0   -10559.157    13326.516 
      99    1408.2207   -10996.195            0   -10559.513    13326.516 
     100    1408.2207   -10996.411            0   -10559.729    13326.516 
     101    1408.2207   -10996.679            0   -10559.996    13326.516 
     102    1408.2207     -10997.1            0   -10560.417    13326.516 
     103    1408.2207   -10997.449            0   -10560.767    13326.516 
     104    1408.2207   -10997.676            0   -10560.993    13326.516 
     105    1408.2207   -10997.989            0   -10561.307    13326.516 
     106    1408.2207   -10998.397            0   -10561.715    13326.516 
     107    1408.2207   -10998.602            0   -10561.919    13326.516 
     108    1408.2207   -10998.791            0   -10562.109    13326.516 
     109    1408.2207   -10998.999            0   -10562.317    13326.516 
     110    1408.2207   -10999.278            0   -10562.596    13326.516 
     111    1408.2207   -10999.563            0   -10562.881    13326.516 
     112    1408.2207   -10999.836            0   -10563.154    13326.516 
     113    1408.2207   -11000.029            0   -10563.347    13326.516 
     114    1408.2207    -11000.28            0   -10563.598    13326.516 
     115    1408.2207   -11000.495            0   -10563.813    13326.516 
     116    1408.2207   -11000.801            0   -10564.118    13326.516 
     117    1408.2207   -11001.047            0   -10564.365    13326.516 
     118    1408.2207    -11001.39            0   -10564.707    13326.516 
     119    1408.2207   -11001.688            0   -10565.005    13326.516 
     120    1408.2207   -11001.978            0   -10565.295    13326.516 
     121    1408.2207   -11002.279            0   -10565.597    13326.516 
     122    1408.2207     -11002.5            0   -10565.818    13326.516 
     123    1408.2207   -11002.739            0   -10566.057    13326.516 
     124    1408.2207   -11002.905            0   -10566.223    13326.516 
     125    1408.2207   -11003.079            0   -10566.397    13326.516 
     126    1408.2207   -11003.306            0   -10566.623    13326.516 
     127    1408.2207   -11003.467            0   -10566.784    13326.516 
     128    1408.2207   -11003.651            0   -10566.969    13326.516 
     129    1408.2207   -11003.869            0   -10567.187    13326.516 
     130    1408.2207   -11004.046            0   -10567.364    13326.516 
     131    1408.2207   -11004.229            0   -10567.547    13326.516 
     132    1408.2207   -11004.482            0     -10567.8    13326.516 
     133    1408.2207    -11004.68            0   -10567.997    13326.516 
     134    1408.2207   -11004.833            0   -10568.151    13326.516 
     135    1408.2207   -11005.031            0   -10568.349    13326.516 
     136    1408.2207   -11005.186            0   -10568.503    13326.516 
     137    1408.2207   -11005.388            0   -10568.705    13326.516 
     138    1408.2207   -11005.607            0   -10568.925    13326.516 
     139    1408.2207    -11005.84            0   -10569.158    13326.516 
     140    1408.2207   -11006.032            0    -10569.35    13326.516 
     141    1408.2207    -11006.23            0   -10569.548    13326.516 
     142    1408.2207   -11006.475            0   -10569.792    13326.516 
     143    1408.2207   -11006.664            0   -10569.982    13326.516 
     144    1408.2207   -11006.815            0   -10570.133    13326.516 
     145    1408.2207   -11006.977            0   -10570.294    13326.516 
     146    1408.2207   -11007.164            0   -10570.482    13326.516 
     147    1408.2207     -11007.4            0   -10570.718    13326.516 
     148    1408.2207   -11007.709            0   -10571.027    13326.516 
     149    1408.2207   -11007.858            0   -10571.176    13326.516 
     150    1408.2207   -11008.047            0   -10571.365    13326.516 
     151    1408.2207   -11008.208            0   -10571.526    13326.516 
     152    1408.2207   -11008.363            0   -10571.681    13326.516 
     153    1408.2207   -11008.501            0   -10571.819    13326.516 
     154    1408.2207   -11008.675            0   -10571.992    13326.516 
     155    1408.2207   -11008.804            0   -10572.121    13326.516 
     156    1408.2207   -11008.933            0    -10572.25    13326.516 
     157    1408.2207   -11009.067            0   -10572.385    13326.516 
     158    1408.2207   -11009.199            0   -10572.517    13326.516 
     159    1408.2207   -11009.316            0   -10572.634    13326.516 
     160    1408.2207   -11009.437            0   -10572.754    13326.516 
     161    1408.2207   -11009.559            0   -10572.876    13326.516 
     162    1408.2207   -11009.703            0   -10573.021    13326.516 
     163    1408.2207    -11009.84            0   -10573.158    13326.516 
     164    1408.2207    -11009.99            0   -10573.308    13326.516 
     165    1408.2207   -11010.117            0   -10573.435    13326.516 
     166    1408.2207    -11010.26            0   -10573.577    13326.516 
     167    1408.2207   -11010.409            0   -10573.727    13326.516 
     168    1408.2207   -11010.545            0   -10573.863    13326.516 
     169    1408.2207   -11010.678            0   -10573.995    13326.516 
     170    1408.2207   -11010.816            0   -10574.134    13326.516 
     171    1408.2207   -11010.989            0   -10574.307    13326.516 
     172    1408.2207    -11011.15            0   -10574.468    13326.516 
     173    1408.2207   -11011.319            0   -10574.637    13326.516 
     174    1408.2207    -11011.51            0   -10574.827    13326.516 
     175    1408.2207   -11011.689            0   -10575.007    13326.516 
     176    1408.2207   -11011.856            0   -10575.174    13326.516 
     177    1408.2207   -11012.023            0   -10575.341    13326.516 
     178    1408.2207   -11012.208            0   -10575.526    13326.516 
     179    1408.2207   -11012.387            0   -10575.704    13326.516 
     180    1408.2207   -11012.496            0   -10575.814    13326.516 
     181    1408.2207   -11012.607            0   -10575.925    13326.516 
     182    1408.2207   -11012.696            0   -10576.014    13326.516 
     183    1408.2207   -11012.803            0    -10576.12    13326.516 
     184    1408.2207   -11012.909            0   -10576.227    13326.516 
     185    1408.2207   -11012.991            0   -10576.309    13326.516 
     186    1408.2207   -11013.073            0   -10576.391    13326.516 
     187    1408.2207   -11013.188            0   -10576.506    13326.516 
     188    1408.2207    -11013.26            0   -10576.577    13326.516 
     189    1408.2207   -11013.354            0   -10576.671    13326.516 
     190    1408.2207   -11013.453            0   -10576.771    13326.516 
     191    1408.2207   -11013.549            0   -10576.866    13326.516 
     192    1408.2207   -11013.641            0   -10576.958    13326.516 
     193    1408.2207   -11013.737            0   -10577.055    13326.516 
     194    1408.2207   -11013.839            0   -10577.157    13326.516 
     195    1408.2207   -11013.926            0   -10577.243    13326.516 
     196    1408.2207   -11014.004            0   -10577.322    13326.516 
     197    1408.2207   -11014.069            0   -10577.387    13326.516 
     198    1408.2207   -11014.152            0    -10577.47    13326.516 
     199    1408.2207   -11014.213            0   -10577.531    13326.516 
     200    1408.2207   -11014.285            0   -10577.603    13326.516 
     201    1408.2207   -11014.351            0   -10577.668    13326.516 
     202    1408.2207   -11014.437            0   -10577.754    13326.516 
     203    1408.2207   -11014.518            0   -10577.835    13326.516 
     204    1408.2207     -11014.6            0   -10577.917    13326.516 
     205    1408.2207   -11014.708            0   -10578.026    13326.516 
     206    1408.2207   -11014.797            0   -10578.115    13326.516 
     207    1408.2207     -11014.9            0   -10578.218    13326.516 
     208    1408.2207    -11015.02            0   -10578.337    13326.516 
     209    1408.2207   -11015.168            0   -10578.486    13326.516 
     210    1408.2207   -11015.301            0   -10578.618    13326.516 
     211    1408.2207   -11015.401            0   -10578.719    13326.516 
     212    1408.2207   -11015.496            0   -10578.814    13326.516 
     213    1408.2207   -11015.577            0   -10578.895    13326.516 
     214    1408.2207   -11015.677            0   -10578.994    13326.516 
     215    1408.2207   -11015.729            0   -10579.046    13326.516 
     216    1408.2207   -11015.806            0   -10579.123    13326.516 
     217    1408.2207   -11015.871            0   -10579.189    13326.516 
     218    1408.2207    -11015.93            0   -10579.247    13326.516 
     219    1408.2207   -11015.989            0   -10579.307    13326.516 
     220    1408.2207   -11016.052            0   -10579.369    13326.516 
     221    1408.2207   -11016.092            0   -10579.409    13326.516 
     222    1408.2207   -11016.142            0   -10579.459    13326.516 
     223    1408.2207   -11016.205            0   -10579.523    13326.516 
     224    1408.2207   -11016.265            0   -10579.582    13326.516 
     225    1408.2207   -11016.349            0   -10579.666    13326.516 
     226    1408.2207   -11016.399            0   -10579.717    13326.516 
     227    1408.2207   -11016.448            0   -10579.766    13326.516 
     228    1408.2207   -11016.502            0    -10579.82    13326.516 
     229    1408.2207   -11016.557            0   -10579.874    13326.516 
     230    1408.2207   -11016.595            0   -10579.912    13326.516 
     231    1408.2207   -11016.633            0    -10579.95    13326.516 
     232    1408.2207     -11016.7            0   -10580.018    13326.516 
     233    1408.2207    -11016.75            0   -10580.068    13326.516 
     234    1408.2207   -11016.795            0   -10580.113    13326.516 
     235    1408.2207   -11016.847            0   -10580.164    13326.516 
     236    1408.2207    -11016.89            0   -10580.207    13326.516 
     237    1408.2207   -11016.942            0    -10580.26    13326.516 
     238    1408.2207   -11016.981            0   -10580.299    13326.516 
     239    1408.2207   -11017.022            0    -10580.34    13326.516 
     240    1408.2207   -11017.065            0   -10580.383    13326.516 
     241    1408.2207   -11017.119            0   -10580.437    13326.516 
     242    1408.2207   -11017.158            0   -10580.476    13326.516 
     243    1408.2207   -11017.224            0   -10580.541    13326.516 
     244    1408.2207   -11017.281            0   -10580.599    13326.516 
     245    1408.2207   -11017.339            0   -10580.657    13326.516 
     246    1408.2207   -11017.383            0     -10580.7    13326.516 
     247    1408.2207   -11017.438            0   -10580.755    13326.516 
     248    1408.2207   -11017.473            0    -10580.79    13326.516 
     249    1408.2207   -11017.532            0    -10580.85    13326.516 
     250    1408.2207   -11017.564            0   -10580.882    13326.516 
     251    1408.2207   -11017.623            0   -10580.941    13326.516 
     252    1408.2207   -11017.666            0   -10580.984    13326.516 
     253    1408.2207   -11017.715            0   -10581.033    13326.516 
     254    1408.2207   -11017.769            0   -10581.086    13326.516 
     255    1408.2207   -11017.799            0   -10581.116    13326.516 
     256    1408.2207    -11017.84            0   -10581.158    13326.516 
     257    1408.2207   -11017.879            0   -10581.197    13326.516 
     258    1408.2207   -11017.909            0   -10581.227    13326.516 
     259    1408.2207    -11017.96            0   -10581.278    13326.516 
     260    1408.2207   -11018.005            0   -10581.323    13326.516 
     261    1408.2207   -11018.045            0   -10581.363    13326.516 
     262    1408.2207   -11018.094            0   -10581.411    13326.516 
     263    1408.2207    -11018.15            0   -10581.468    13326.516 
     264    1408.2207   -11018.219            0   -10581.536    13326.516 
     265    1408.2207   -11018.258            0   -10581.575    13326.516 
     266    1408.2207   -11018.286            0   -10581.604    13326.516 
     267    1408.2207   -11018.331            0   -10581.649    13326.516 
     268    1408.2207   -11018.373            0   -10581.691    13326.516 
     269    1408.2207    -11018.42            0   -10581.738    13326.516 
     270    1408.2207   -11018.464            0   -10581.782    13326.516 
     271    1408.2207   -11018.491            0   -10581.809    13326.516 
     272    1408.2207   -11018.516            0   -10581.833    13326.516 
     273    1408.2207   -11018.555            0   -10581.872    13326.516 
     274    1408.2207   -11018.597            0   -10581.914    13326.516 
     275    1408.2207   -11018.636            0   -10581.953    13326.516 
     276    1408.2207   -11018.702            0    -10582.02    13326.516 
     277    1408.2207   -11018.762            0   -10582.079    13326.516 
     278    1408.2207    -11018.81            0   -10582.127    13326.516 
     279    1408.2207   -11018.871            0   -10582.189    13326.516 
     280    1408.2207   -11018.926            0   -10582.243    13326.516 
     281    1408.2207    -11018.97            0   -10582.287    13326.516 
     282    1408.2207   -11019.005            0   -10582.323    13326.516 
     283    1408.2207   -11019.032            0    -10582.35    13326.516 
     284    1408.2207   -11019.085            0   -10582.403    13326.516 
     285    1408.2207   -11019.114            0   -10582.432    13326.516 
     286    1408.2207    -11019.15            0   -10582.468    13326.516 
     287    1408.2207   -11019.191            0   -10582.509    13326.516 
     288    1408.2207   -11019.216            0   -10582.533    13326.516 
     289    1408.2207   -11019.262            0   -10582.579    13326.516 
     290    1408.2207    -11019.29            0   -10582.608    13326.516 
     291    1408.2207    -11019.31            0   -10582.627    13326.516 
     292    1408.2207   -11019.346            0   -10582.663    13326.516 
     293    1408.2207   -11019.361            0   -10582.679    13326.516 
     294    1408.2207   -11019.383            0     -10582.7    13326.516 
     295    1408.2207    -11019.39            0   -10582.707    13326.516 
     296    1408.2207   -11019.402            0    -10582.72    13326.516 
     297    1408.2207   -11019.412            0    -10582.73    13326.516 
     298    1408.2207   -11019.437            0   -10582.754    13326.516 
     299    1408.2207   -11019.438            0   -10582.756    13326.516 
     300    1408.2207   -11019.447            0   -10582.765    13326.516 
     301    1408.2207   -11019.464            0   -10582.782    13326.516 
     302    1408.2207   -11019.484            0   -10582.802    13326.516 
     303    1408.2207    -11019.49            0   -10582.808    13326.516 
     304    1408.2207   -11019.486            0   -10582.804    13326.516 
Loop time of 102.399 on 1 procs for 304 steps with 2400 atoms

98.0% CPU use with 1 MPI tasks x 1 OpenMP threads

Minimization stats:
  Stopping criterion = energy tolerance
  Energy initial, next-to-last, final = 
     -10516.2490234375   -11019.490234375   -11019.486328125
  Force two-norm initial, final = 62.984318 0.18920316
  Force max component initial, final = 4.7756839 0.040616293
  Final line search alpha, max atom move = 0.00097656250 3.9664348e-05
  Iterations, force evaluations = 304 525

MPI task timing breakdown:
Section |  min time  |  avg time  |  max time  |%varavg| %total
---------------------------------------------------------------
Pair    | 102.1      | 102.1      | 102.1      |   0.0 | 99.70
Neigh   | 0.2195     | 0.2195     | 0.2195     |   0.0 |  0.21
Comm    | 0.028773   | 0.028773   | 0.028773   |   0.0 |  0.03
Output  | 0.0090147  | 0.0090147  | 0.0090147  |   0.0 |  0.01
Modify  | 0          | 0          | 0          |   0.0 |  0.00
Other   |            | 0.04538    |            |       |  0.04

Nlocal:        2400.00 ave        2400 max        2400 min
Histogram: 1 0 0 0 0 0 0 0 0 0
Nghost:        4833.00 ave        4833 max        4833 min
Histogram: 1 0 0 0 0 0 0 0 0 0
Neighs:         0.00000 ave           0 max           0 min
Histogram: 1 0 0 0 0 0 0 0 0 0
FullNghs:      234872.0 ave      234872 max      234872 min
Histogram: 1 0 0 0 0 0 0 0 0 0

Total # of neighbors = 234872
Ave neighs/atom = 97.863333
Neighbor list builds = 16
Dangerous builds = 0


timestep .001 # fetmoseconds
variable Tsim equal 1400 # Kelvin
velocity all create ${Tsim} 12335
velocity all create 1400 12335

#-------------------------------------------
# 1st equilibration run
fix 1 all nvt temp ${Tsim} ${Tsim} $(100.0*dt)
fix 1 all nvt temp 1400 ${Tsim} $(100.0*dt)
fix 1 all nvt temp 1400 1400 $(100.0*dt)
fix 1 all nvt temp 1400 1400 0.10000000000000000555
thermo          100
reset_timestep 0
run 50000
Per MPI rank memory allocation (min/avg/max) = 3.983 | 3.983 | 3.983 Mbytes
Step Temp E_pair E_mol TotEng Press 
       0         1400    -11019.48            0   -10585.347     13248.72 
     100    715.29536   -10775.325            0   -10553.516    6769.1059 
     200     791.5647   -10742.699            0   -10497.239     7490.871 
     300    914.50821   -10713.381            0   -10429.796    8654.3311 
     400    1000.5535   -10665.154            0   -10354.888    9468.6097 
     500    1143.2383   -10630.341            0   -10275.828    10818.889 
     600    1254.1647   -10586.357            0   -10197.447    11868.627 
     700    1374.9062   -10553.108            0   -10126.757    13011.249 
     800    1416.6884   -10513.233            0   -10073.925    13406.649 
     900    1471.5221   -10502.319            0   -10046.008    13925.561 
    1000    1476.1903   -10506.996            0   -10049.237    13969.738 
    1100    1374.9697   -10506.283            0   -10079.912    13011.849 
    1200    1352.6582   -10515.563            0   -10096.111    12800.707 
    1300    1403.1464   -10524.813            0   -10089.705    13278.496 
    1400    1401.4264   -10511.682            0   -10077.106    13262.219 
    1500    1409.1903   -10501.356            0   -10064.373    13335.692 
    1600    1420.8784   -10507.142            0   -10066.534    13446.301 
    1700    1378.6306   -10511.868            0   -10084.362    13046.494 
    1800    1370.2703   -10518.887            0   -10093.973    12967.378 
    1900    1383.9603   -10519.949            0    -10090.79    13096.931 
    2000    1372.4131   -10506.547            0   -10080.968    12987.655 
    2100     1427.544   -10514.914            0    -10072.24     13509.38 
    2200    1418.7906   -10512.978            0   -10073.018    13426.542 
    2300    1400.3809   -10512.314            0   -10078.063    13252.325 
    2400    1374.1683   -10508.979            0   -10082.856    13004.265 
    2500    1361.0196   -10503.079            0   -10081.034    12879.834 
    2600    1425.2601   -10519.126            0    -10077.16    13487.766 
    2700    1387.3114   -10508.773            0   -10078.575    13128.643 
    2800    1402.7445   -10517.015            0    -10082.03    13274.693 
    2900    1422.0042   -10521.268            0   -10080.311    13456.954 
    3000    1362.6812   -10501.262            0   -10078.701    12895.558 
    3100    1436.3293   -10513.658            0    -10068.26    13592.518 
    3200    1431.9072   -10512.721            0   -10068.693    13550.671 
    3300    1409.1784   -10516.836            0   -10079.857    13335.579 
    3400    1369.3652   -10514.923            0   -10090.289    12958.812 
    3500    1387.4244   -10514.761            0   -10084.527    13129.713 
    3600    1417.3008   -10510.604            0   -10071.106    13412.444 
    3700    1411.6659   -10503.189            0   -10065.439    13359.119 
    3800    1404.5585   -10506.387            0    -10070.84    13291.859 
    3900    1388.8824    -10510.88            0   -10080.194     13143.51 
    4000    1398.5593    -10515.57            0   -10081.884    13235.087 
    4100    1405.3497   -10517.945            0   -10082.153    13299.346 
    4200    1418.4477   -10519.755            0   -10079.901    13423.298 
    4300    1435.9379   -10521.259            0   -10075.981    13588.814 
    4400    1396.9602   -10508.379            0   -10075.188    13219.954 
    4500    1399.4165   -10507.994            0   -10074.042    13243.199 
    4600    1401.5985   -10508.407            0   -10073.778    13263.848 
    4700    1409.2338   -10508.998            0   -10072.002    13336.103 
    4800    1397.6208   -10503.353            0   -10069.957    13226.205 
    4900    1437.6268   -10517.264            0   -10071.463    13604.797 
    5000    1360.9143   -10501.419            0   -10079.406    12878.838 
    5100    1406.2218   -10516.152            0    -10080.09    13307.599 
    5200    1400.9747   -10519.057            0   -10084.621    13257.944 
    5300    1376.7799   -10514.344            0   -10087.411     13028.98 
    5400    1403.4882     -10516.7            0   -10081.485     13281.73 
    5500    1383.0105   -10496.918            0   -10068.053    13087.942 
    5600    1426.8696   -10502.688            0   -10060.222    13502.997 
    5700    1393.5086   -10506.905            0   -10074.785     13187.29 
    5800    1380.8882   -10515.777            0   -10087.571    13067.858 
    5900    1360.7799   -10514.899            0   -10092.928    12877.566 
    6000    1394.2754   -10512.183            0   -10079.825    13194.546 
    6100    1410.6735   -10506.553            0    -10069.11    13349.727 
    6200    1396.6739    -10505.51            0   -10072.408    13217.244 
    6300    1381.9035   -10501.527            0   -10073.006    13077.467 
    6400    1422.5795   -10503.693            0   -10062.558    13462.399 
    6500    1446.4938   -10503.695            0   -10055.145    13688.709 
    6600    1396.4373   -10500.305            0   -10067.276    13215.005 
    6700    1409.4563   -10519.114            0   -10082.049    13338.208 
    6800    1392.7747   -10517.104            0   -10085.212    13180.344 
    6900    1411.6975   -10517.276            0   -10079.516    13359.418 
    7000    1430.3023   -10514.729            0     -10071.2    13535.482 
    7100    1437.7796   -10516.347            0   -10070.498    13606.243 
    7200    1396.2386   -10518.965            0   -10085.998    13213.125 
    7300    1369.7017    -10519.73            0   -10094.993    12961.996 
    7400    1392.7625   -10522.026            0   -10090.138    13180.229 
    7500    1406.4532   -10511.305            0    -10075.17     13309.79 
    7600    1412.8786   -10505.817            0   -10067.691    13370.595 
    7700    1387.2431   -10500.347            0   -10070.169    13127.997 
    7800    1411.7587   -10505.801            0   -10068.021    13359.997 
    7900    1430.4944   -10516.371            0   -10072.782      13537.3 
    8000    1372.4812   -10517.858            0   -10092.259      12988.3 
    8100    1356.4754   -10511.882            0   -10091.245     12836.83 
    8200     1384.384   -10511.511            0    -10082.22     13100.94 
    8300    1442.4279   -10522.795            0   -10075.505    13650.231 
    8400    1369.1443   -10509.365            0     -10084.8    12956.722 
    8500    1377.6001   -10527.207            0    -10100.02    13036.741 
    8600    1327.8652       -10513            0   -10101.236    12566.082 
    8700    1399.6707   -10510.523            0   -10076.492    13245.604 
    8800    1403.6692   -10505.334            0   -10070.063    13283.444 
    8900    1429.6551   -10516.001            0   -10072.672    13529.357 
    9000    1393.7092   -10517.356            0   -10085.174    13189.188 
    9100    1365.2701   -10509.585            0   -10086.221    12920.058 
    9200    1428.7985   -10516.883            0   -10073.819    13521.251 
    9300    1447.8842   -10508.479            0   -10059.497    13701.866 
    9400    1445.4958   -10503.053            0   -10054.812    13679.264 
    9500    1387.5946    -10502.58            0   -10072.294    13131.324 
    9600    1394.8251   -10519.814            0   -10087.286    13199.749 
    9700    1364.9506   -10517.613            0   -10094.349    12917.035 
    9800    1411.3592   -10524.507            0   -10086.851    13356.217 
    9900    1415.6817   -10513.081            0   -10074.085    13397.122 
   10000    1381.3636   -10498.124            0    -10069.77    13072.358 
   10100    1416.9365   -10509.188            0   -10069.802    13408.996 
   10200    1411.9455    -10514.76            0   -10076.922    13361.766 
   10300    1402.7096   -10515.326            0   -10080.353    13274.362 
   10400    1392.6484   -10511.358            0   -10079.505    13179.149 
   10500    1415.1997   -10517.303            0   -10078.456    13392.561 
   10600    1404.6993   -10520.713            0   -10085.123    13293.191 
   10700     1378.573   -10516.139            0    -10088.65    13045.948 
   10800    1413.4498   -10523.943            0    -10085.64        13376 
   10900    1404.4707   -10510.969            0   -10075.449    13291.029 
   11000     1419.218   -10508.992            0     -10068.9    13430.587 
   11100    1379.1707   -10509.407            0   -10081.733    13051.605 
   11200    1382.8338   -10519.635            0   -10090.825     13086.27 
   11300    1397.6188   -10520.945            0   -10087.551    13226.186 
   11400    1395.5941   -10515.512            0   -10082.745    13207.026 
   11500     1396.166   -10510.403            0   -10077.459    13212.438 
   11600    1414.4237   -10514.147            0   -10075.542    13385.218 
   11700    1382.6429   -10512.099            0   -10083.348    13084.463 
   11800    1399.5336   -10524.126            0   -10090.137    13244.306 
   11900     1355.609   -10508.045            0   -10087.677    12828.632 
   12000    1456.4251   -10521.249            0   -10069.619    13782.692 
   12100    1421.3493   -10509.667            0   -10068.914    13450.757 
   12200    1409.1911   -10513.917            0   -10076.934    13335.699 
   12300    1354.3981    -10509.28            0   -10089.288    12817.172 
   12400    1371.1038   -10514.616            0   -10089.444    12975.264 
   12500    1398.4933   -10519.576            0    -10085.91    13234.462 
   12600    1373.2239   -10504.054            0   -10078.224    12995.328 
   12700     1399.585   -10504.745            0   -10070.741    13244.793 
   12800    1406.8652   -10504.888            0   -10068.626    13313.688 
   12900    1425.0158   -10505.171            0   -10063.281    13485.454 
   13000    1397.2628   -10507.351            0   -10074.066    13222.817 
   13100    1368.6927   -10512.246            0   -10087.821    12952.447 
   13200    1378.3384   -10518.911            0   -10091.495    13043.729 
   13300    1392.9662   -10516.606            0   -10084.654    13182.157 
   13400    1431.8546   -10511.937            0   -10067.925    13550.172 
   13500    1427.1779   -10505.152            0   -10062.591    13505.915 
   13600     1417.398    -10511.69            0   -10072.162    13413.364 
   13700    1395.4973   -10510.638            0   -10077.901     13206.11 
   13800    1397.8386   -10509.694            0   -10076.231    13228.267 
   13900    1380.3022   -10505.791            0   -10077.766    13062.313 
   14000    1377.6086   -10513.008            0   -10085.818    13036.822 
   14100    1388.0782   -10522.079            0   -10091.643      13135.9 
   14200     1393.221    -10518.53            0   -10086.499    13184.568 
   14300    1430.1596   -10513.568            0   -10070.083    13534.131 
   14400    1398.3213   -10501.656            0   -10068.044    13232.834 
   14500    1413.9412   -10510.801            0   -10072.345    13380.651 
   14600    1395.6706   -10521.624            0   -10088.833     13207.75 
   14700    1394.5513   -10531.361            0   -10098.918    13197.157 
   14800    1383.6832    -10521.66            0   -10092.587    13094.308 
   14900    1379.6508   -10508.103            0    -10080.28    13056.148 
   15000     1400.001   -10508.118            0   -10073.985     13248.73 
   15100    1398.6037   -10505.812            0   -10072.112    13235.507 
   15200    1402.4755   -10510.638            0   -10075.737    13272.147 
   15300    1383.4157   -10512.533            0   -10083.543    13091.777 
   15400    1376.4206   -10514.733            0   -10087.912     13025.58 
   15500    1371.0732   -10508.885            0   -10083.722    12974.975 
   15600    1435.6298   -10512.275            0   -10067.094    13585.899 
   15700    1390.4593   -10496.617            0   -10065.443    13158.433 
   15800    1388.8675    -10504.17            0   -10073.489    13143.369 
   15900    1410.8767   -10518.893            0   -10081.387    13351.651 
   16000    1386.5351   -10525.473            0   -10095.515    13121.297 
   16100    1325.2764   -10522.827            0   -10111.865    12541.583 
   16200    1344.5394   -10512.106            0   -10095.171    12723.876 
   16300    1377.4626    -10506.41            0   -10079.266     13035.44 
   16400    1404.2425   -10504.288            0   -10068.839    13288.869 
   16500    1383.5767   -10498.015            0   -10068.974    13093.301 
   16600    1422.1147   -10511.795            0   -10070.804        13458 
   16700    1389.4533   -10516.789            0   -10085.926    13148.913 
   16800    1388.5845   -10523.927            0   -10093.334    13140.692 
   16900    1371.0139    -10514.11            0   -10088.966    12974.414 
   17000    1394.2654   -10506.964            0   -10074.609    13194.452 
   17100    1458.7769   -10513.804            0   -10061.444    13804.948 
   17200    1416.5259   -10510.684            0   -10071.426    13405.112 
   17300    1402.2118    -10516.56            0   -10081.741    13269.651 
   17400     1385.668   -10518.801            0   -10089.112    13113.092 
   17500    1402.2021   -10516.562            0   -10081.746     13269.56 
   17600    1431.5523   -10509.596            0   -10065.678    13547.311 
   17700    1413.4119   -10504.151            0   -10065.859    13375.642 
   17800    1417.4128   -10511.967            0   -10072.434    13413.504 
   17900    1419.8064   -10521.234            0   -10080.959    13436.155 
   18000    1396.7115   -10517.569            0   -10084.456      13217.6 
   18100    1407.7363   -10509.193            0   -10072.661    13321.932 
   18200    1427.8561   -10505.824            0   -10063.053    13512.333 
   18300    1391.0226   -10500.386            0   -10069.036    13163.764 
   18400    1412.2752   -10512.579            0   -10074.639    13364.885 
   18500    1411.4132   -10515.226            0   -10077.553    13356.728 
   18600    1384.1315   -10511.647            0   -10082.435    13098.551 
   18700    1355.6143   -10522.897            0   -10102.528    12828.682 
   18800    1355.1494   -10522.978            0   -10102.752    12824.282 
   18900    1380.3313   -10515.487            0   -10087.453    13062.588 
   19000    1443.2566   -10525.773            0   -10078.227    13658.073 
   19100    1382.3495   -10506.645            0   -10077.985    13081.687 
   19200    1426.7433   -10523.391            0   -10080.965    13501.802 
   19300    1374.2784   -10523.208            0   -10097.051    13005.308 
   19400    1340.4808   -10517.659            0   -10101.983    12685.468 
   19500    1398.2394   -10520.616            0   -10087.029    13232.059 
   19600    1414.1175   -10517.571            0    -10079.06     13382.32 
   19700    1350.6727    -10496.16            0   -10077.323    12781.918 
   19800    1442.8841   -10517.069            0   -10069.638    13654.548 
   19900    1396.2746   -10499.232            0   -10066.255    13213.465 
   20000    1383.2078   -10496.596            0    -10067.67     13089.81 
   20100    1406.3468   -10513.521            0   -10077.419    13308.782 
   20200    1407.8486   -10523.898            0   -10087.331    13322.995 
   20300    1352.4263   -10512.099            0   -10092.718    12798.513 
   20400    1414.2068   -10513.271            0   -10074.732    13383.164 
   20500    1451.8046   -10517.685            0   -10067.487    13738.966 
   20600    1386.4983   -10509.326            0    -10079.38    13120.949 
   20700    1378.7662   -10514.135            0   -10086.586    13047.777 
   20800    1383.2679   -10511.276            0   -10082.332    13090.378 
   20900    1413.2074   -10509.856            0   -10071.628    13373.707 
   21000    1449.4101   -10502.905            0    -10053.45    13716.306 
   21100    1412.8373   -10495.044            0    -10056.93    13370.205 
   21200     1413.963   -10511.781            0   -10073.318    13380.857 
   21300    1351.8163   -10495.808            0   -10076.616     12792.74 
   21400    1411.5167   -10506.629            0   -10068.925    13357.707 
   21500    1432.9596   -10511.156            0   -10066.803     13560.63 
   21600    1412.7607   -10522.162            0   -10084.072     13369.48 
   21700    1360.4126   -10511.243            0   -10089.386     12874.09 
   21800    1428.1886   -10520.113            0   -10077.239    13515.479 
   21900    1383.8556     -10504.8            0   -10075.673     13095.94 
   22000    1395.4987    -10515.42            0   -10082.683    13206.123 
   22100    1369.8685   -10517.687            0   -10092.897    12963.575 
   22200     1368.768   -10511.916            0   -10087.468     12953.16 
   22300    1427.9203    -10513.05            0   -10070.259     13512.94 
   22400    1419.3344   -10504.011            0   -10063.882    13431.689 
   22500    1402.6485   -10501.192            0   -10066.238    13273.784 
   22600    1355.9684     -10504.1            0    -10083.62    12832.033 
   22700    1375.7484   -10515.437            0   -10088.824    13019.218 
   22800    1390.2057   -10512.369            0   -10081.273    13156.033 
   22900    1420.0327   -10516.124            0   -10075.779    13438.297 
   23000    1391.0234   -10503.895            0   -10072.545    13163.771 
   23100    1416.2317    -10499.31            0   -10060.143    13402.327 
   23200    1434.5828   -10494.343            0   -10049.486     13575.99 
   23300    1428.8343   -10496.825            0   -10053.751     13521.59 
   23400    1410.2448   -10509.842            0   -10072.532    13345.671 
   23500    1385.1407   -10507.229            0   -10077.704    13108.101 
   23600    1435.4069   -10518.612            0     -10073.5    13583.789 
   23700    1439.5669   -10515.627            0   -10069.224    13623.156 
   23800    1381.9334   -10509.801            0    -10081.27    13077.749 
   23900    1369.0089   -10516.084            0   -10091.561     12955.44 
   24000    1386.5259   -10516.226            0   -10086.271     13121.21 
   24100    1430.2984   -10515.278            0    -10071.75    13535.445 
   24200    1407.2836    -10506.05            0   -10069.658    13317.648 
   24300    1403.9397   -10519.559            0   -10084.204    13286.003 
   24400    1365.7571   -10527.062            0   -10103.548    12924.667 
   24500    1381.3891   -10518.513            0   -10090.151    13072.599 
   24600    1376.1597    -10502.37            0    -10075.63    13023.111 
   24700    1429.6574   -10507.156            0   -10063.827    13529.379 
   24800    1386.2559   -10496.376            0   -10066.505    13118.655 
   24900    1391.1976   -10508.739            0   -10077.336     13165.42 
   25000    1373.5665   -10512.357            0   -10086.421     12998.57 
   25100    1378.7138   -10518.422            0    -10090.89    13047.281 
   25200    1393.2398    -10518.75            0   -10086.713    13184.746 
   25300    1407.7802   -10509.923            0   -10073.377    13322.347 
   25400    1420.1147   -10509.506            0   -10069.135    13439.073 
   25500     1407.575   -10509.797            0   -10073.315    13320.406 
   25600    1365.9013   -10513.382            0   -10089.823    12926.032 
   25700    1377.7291   -10518.533            0   -10091.306    13037.963 
   25800    1424.8267   -10521.038            0   -10079.206    13483.664 
   25900    1406.6025   -10511.975            0   -10075.794    13311.202 
   26000    1412.3095   -10514.607            0   -10076.657    13365.209 
   26100    1383.3308   -10510.232            0   -10081.268    13090.973 
   26200    1383.0893   -10513.181            0   -10084.291    13088.688 
   26300     1393.156   -10519.775            0   -10087.765    13183.953 
   26400    1386.2886   -10521.754            0   -10091.873    13118.964 
   26500    1374.6201   -10515.985            0   -10089.722    13008.541 
   26600    1411.2838   -10517.878            0   -10080.246    13355.504 
   26700    1405.1951   -10504.593            0   -10068.849    13297.883 
   26800    1437.3214    -10504.03            0   -10058.324    13601.907 
   26900    1411.9562   -10506.752            0   -10068.911    13361.866 
   27000    1353.5876   -10507.468            0   -10087.727    12809.503 
   27100    1374.7195   -10511.775            0   -10085.482    13009.482 
   27200    1423.9672   -10520.352            0   -10078.786    13475.531 
   27300    1415.4138   -10508.387            0   -10069.474    13394.587 
   27400    1430.4669   -10503.073            0   -10059.492     13537.04 
   27500    1380.9351   -10501.818            0   -10073.597    13068.302 
   27600     1365.169   -10509.653            0   -10086.321    12919.101 
   27700    1402.9422   -10521.369            0   -10086.324    13276.563 
   27800    1411.3856   -10519.831            0   -10082.167    13356.466 
   27900    1429.6673   -10506.684            0   -10063.351    13529.473 
   28000    1449.5464   -10511.304            0   -10061.807    13717.596 
   28100    1390.7266   -10504.056            0   -10072.798    13160.962 
   28200     1364.511   -10501.646            0   -10078.517    12912.874 
   28300    1378.5148   -10504.606            0   -10077.136    13045.398 
   28400    1414.7884   -10511.956            0   -10073.237    13388.668 
   28500    1436.7707   -10513.907            0   -10068.372    13596.695 
   28600    1436.4413   -10507.292            0   -10061.859    13593.578 
   28700    1414.0991   -10504.901            0   -10066.396    13382.145 
   28800    1409.5979    -10518.71            0   -10081.601    13339.549 
   28900    1377.3278   -10513.461            0   -10086.358    13034.164 
   29000    1412.7815   -10513.556            0   -10075.459    13369.676 
   29100    1412.1283   -10503.635            0   -10065.741    13363.495 
   29200    1387.0889   -10499.545            0   -10069.415    13126.538 
   29300    1385.4836   -10499.593            0   -10069.961    13111.346 
   29400    1402.4832   -10507.342            0   -10072.439     13272.22 
   29500    1375.8506   -10511.929            0   -10085.284    13020.185 
   29600     1374.549   -10521.358            0   -10095.118    13007.868 
   29700    1397.0325    -10516.47            0   -10083.257    13220.638 
   29800    1424.5046    -10513.19            0   -10071.459    13480.617 
   29900    1397.1246   -10506.843            0   -10073.601    13221.509 
   30000    1412.4812   -10517.838            0   -10079.834    13366.835 
   30100    1397.9048   -10520.719            0   -10087.235    13228.893 
   30200    1348.0661   -10514.238            0    -10096.21     12757.25 
   30300     1382.734   -10526.474            0   -10097.695    13085.326 
   30400    1420.1206   -10520.947            0   -10080.575    13439.129 
   30500    1391.3881   -10509.261            0   -10077.798    13167.223 
   30600    1378.1683   -10508.106            0   -10080.743    13042.119 
   30700    1399.9599   -10514.629            0   -10080.508    13248.341 
   30800    1398.6184   -10506.651            0   -10072.947    13235.646 
   30900    1400.8461   -10492.705            0    -10058.31    13256.727 
   31000    1419.9567   -10495.705            0   -10055.383    13437.578 
   31100    1406.1808   -10507.333            0   -10071.283    13307.212 
   31200    1388.3335   -10507.887            0   -10077.371    13138.316 
   31300    1402.9827   -10515.748            0    -10080.69    13276.947 
   31400    1427.5655    -10524.65            0   -10081.969    13509.583 
   31500    1398.2736    -10519.31            0   -10085.712    13232.383 
   31600    1368.8038   -10512.104            0   -10087.644    12953.499 
   31700    1407.6803   -10511.093            0   -10074.578    13321.401 
   31800     1444.933   -10515.487            0   -10067.421    13673.938 
   31900    1376.1028   -10502.633            0    -10075.91    13022.573 
   32000    1401.2412   -10525.003            0   -10090.485    13260.467 
   32100    1375.1202   -10523.891            0   -10097.473    13013.274 
   32200    1378.2934    -10517.97            0   -10090.568    13043.302 
   32300    1397.9338   -10515.982            0    -10082.49    13229.167 
   32400    1417.1642   -10513.004            0   -10073.548    13411.151 
   32500    1412.3492   -10501.416            0   -10063.453    13365.586 
   32600    1441.2103   -10498.053            0   -10051.141    13638.709 
   32700    1430.0482   -10500.574            0   -10057.123    13533.078 
   32800    1403.7569   -10516.861            0   -10081.563    13284.273 
   32900    1373.9124   -10513.493            0    -10087.45    13001.844 
   33000    1387.4824   -10510.976            0   -10080.724    13130.261 
   33100    1405.0469   -10503.279            0   -10067.581    13296.481 
   33200    1414.7347   -10503.419            0   -10064.717     13388.16 
   33300    1385.1261   -10503.044            0   -10073.523    13107.963 
   33400    1386.4534   -10521.605            0   -10091.673    13120.524 
   33500    1398.6234   -10526.961            0   -10093.255    13235.694 
   33600     1382.727   -10516.047            0    -10087.27     13085.26 
   33700    1372.6802    -10508.42            0   -10082.759    12990.183 
   33800    1385.2907   -10504.192            0   -10074.621    13109.521 
   33900    1423.2243   -10504.941            0   -10063.607      13468.5 
   34000    1428.3841   -10506.176            0   -10063.241     13517.33 
   34100    1388.1477     -10501.8            0   -10071.342    13136.558 
   34200    1402.5393   -10512.217            0   -10077.296    13272.751 
   34300    1382.2728   -10513.899            0   -10085.263    13080.961 
   34400    1363.9892   -10521.662            0   -10098.696    12907.937 
   34500    1340.5118   -10528.021            0   -10112.335    12685.761 
   34600    1412.9975   -10537.787            0   -10099.624    13371.721 
   34700    1410.6813   -10526.301            0   -10088.855    13349.802 
   34800    1369.2655   -10505.229            0   -10080.627    12957.868 
   34900    1401.2384   -10504.444            0   -10069.927     13260.44 
   35000    1406.5208   -10502.275            0    -10066.12    13310.429 
   35100    1393.5414   -10504.516            0   -10072.385      13187.6 
   35200     1361.037   -10508.683            0   -10086.632    12879.999 
   35300    1372.4375   -10526.591            0   -10101.005    12987.886 
   35400    1372.0552    -10521.62            0   -10096.153    12984.268 
   35500     1423.063   -10523.419            0   -10082.134    13466.974 
   35600      1396.26   -10510.277            0   -10077.304    13213.327 
   35700    1404.0166   -10515.303            0   -10079.924    13286.731 
   35800    1393.8423   -10513.232            0   -10081.009    13190.448 
   35900    1407.5119   -10512.303            0    -10075.84    13319.808 
   36000    1417.0944   -10499.343            0   -10059.909    13410.491 
   36100    1448.5636   -10513.594            0   -10064.401    13708.295 
   36200    1428.4879   -10526.033            0   -10083.066    13518.312 
   36300    1384.2888   -10515.903            0   -10086.642     13100.04 
   36400    1414.1618    -10520.48            0   -10081.956    13382.739 
   36500    1411.2144    -10506.29            0   -10068.679    13354.846 
   36600    1404.3052   -10500.766            0   -10065.297    13289.462 
   36700     1378.892   -10506.741            0   -10079.154    13048.968 
   36800    1386.4886   -10512.565            0   -10082.622    13120.857 
   36900    1401.0281   -10512.445            0   -10077.993     13258.45 
   37000    1404.3043   -10504.885            0   -10069.417    13289.453 
   37100    1404.4611   -10505.604            0   -10070.087    13290.937 
   37200    1368.6503   -10514.069            0   -10089.658    12952.047 
   37300    1403.5466   -10529.387            0   -10094.154    13282.283 
   37400    1383.3025   -10515.937            0   -10086.981    13090.706 
   37500    1419.2296   -10516.126            0    -10076.03    13430.698 
   37600    1408.9028   -10509.078            0   -10072.184    13332.971 
   37700    1391.7012   -10505.295            0   -10073.735    13170.186 
   37800    1382.7099   -10503.476            0   -10074.704    13085.098 
   37900    1386.5269   -10501.946            0   -10071.991     13121.22 
   38000    1414.0799   -10498.227            0   -10059.727    13381.964 
   38100    1418.0449   -10498.362            0   -10058.634    13419.486 
   38200    1399.1962   -10508.931            0   -10075.047    13241.113 
   38300    1400.0904   -10518.244            0   -10084.083    13249.576 
   38400    1380.6524   -10509.698            0   -10081.565    13065.626 
   38500    1393.8343   -10502.942            0   -10070.721    13190.372 
   38600    1434.9568   -10510.259            0   -10065.286     13579.53 
   38700    1403.3086   -10519.178            0   -10084.019    13280.031 
   38800    1380.2805   -10520.941            0   -10092.923    13062.108 
   38900    1366.4324   -10511.965            0   -10088.241    12931.058 
   39000    1424.8381   -10515.447            0   -10073.612    13483.773 
   39100    1416.1344   -10515.188            0   -10076.051    13401.406 
   39200    1405.6939   -10518.245            0   -10082.346    13302.603 
   39300     1352.899   -10505.979            0   -10086.452    12802.986 
   39400    1408.3092   -10515.745            0   -10079.035    13327.354 
   39500    1355.5615   -10496.438            0   -10076.085    12828.182 
   39600    1386.7479   -10502.949            0   -10072.926    13123.311 
   39700    1407.7866   -10509.624            0   -10073.076    13322.408 
   39800    1400.3155    -10512.86            0   -10078.629    13251.706 
   39900    1347.8566   -10512.669            0   -10094.705    12755.268 
   40000     1369.513   -10521.171            0   -10096.492    12960.211 
   40100    1403.6231   -10517.286            0   -10082.029    13283.007 
   40200    1422.9346   -10516.247            0   -10075.002    13465.759 
   40300    1433.8889   -10521.048            0   -10076.406    13569.424 
   40400    1367.0566   -10505.767            0   -10081.849    12936.964 
   40500    1401.4913   -10513.913            0   -10079.318    13262.833 
   40600    1418.0215   -10512.545            0   -10072.823    13419.265 
   40700    1428.2417   -10502.183            0   -10059.292    13515.982 
   40800    1394.4194   -10501.409            0   -10069.007    13195.909 
   40900    1418.2746   -10521.381            0   -10081.581     13421.66 
   41000     1386.484   -10519.271            0    -10089.33    13120.813 
   41100    1388.6806   -10516.604            0    -10085.98    13141.601 
   41200     1406.877    -10504.74            0   -10068.475      13313.8 
   41300    1425.4573   -10506.775            0   -10064.748    13489.633 
   41400    1397.4023    -10502.52            0   -10069.192    13224.138 
   41500    1406.3976   -10509.981            0   -10073.864    13309.263 
   41600    1395.4753    -10519.75            0    -10087.02    13205.901 
   41700    1340.9343    -10512.87            0   -10097.053     12689.76 
   41800    1423.0696   -10524.611            0   -10083.324    13467.036 
   41900    1432.1384   -10523.736            0   -10079.637    13552.858 
   42000    1397.6049   -10515.099            0   -10081.708    13226.055 
   42100    1402.4031   -10512.716            0   -10077.838    13271.461 
   42200     1407.048   -10507.116            0   -10070.798    13315.418 
   42300    1425.6302   -10509.653            0   -10067.572    13491.268 
   42400    1395.3805   -10510.769            0   -10078.068    13205.004 
   42500    1378.5527   -10516.007            0   -10088.524    13045.756 
   42600     1371.816    -10510.97            0   -10085.576    12982.005 
   42700    1423.9815   -10507.884            0   -10066.314    13475.666 
   42800    1416.3632   -10501.615            0   -10062.408    13403.572 
   42900    1433.0483   -10513.226            0   -10068.844    13561.469 
   43000    1423.0977   -10521.663            0   -10080.367    13467.302 
   43100    1393.0376    -10513.85            0   -10081.875    13182.833 
   43200     1383.077    -10511.53            0   -10082.645    13088.572 
   43300     1400.468   -10512.637            0   -10078.358    13253.149 
   43400    1442.3331   -10506.021            0    -10058.76    13649.335 
   43500    1414.9421   -10497.238            0   -10058.472    13390.123 
   43600    1404.0422   -10502.339            0   -10066.952    13286.973 
   43700    1379.0584   -10501.946            0   -10074.307    13050.542 
   43800    1413.2448   -10514.006            0   -10075.766     13374.06 
   43900    1389.5539   -10509.069            0   -10078.176    13149.865 
   44000    1372.4583   -10517.859            0   -10092.267    12988.083 
   44100    1387.3918   -10531.015            0   -10100.791    13129.404 
   44200    1380.1776   -10520.341            0   -10092.355    13061.134 
   44300    1377.6738   -10511.031            0   -10083.821    13037.439 
   44400    1415.2747   -10516.038            0   -10077.168     13393.27 
   44500    1393.5082   -10506.999            0   -10074.879    13187.286 
   44600    1397.3449   -10504.912            0   -10071.602    13223.594 
   44700    1439.9914   -10506.057            0   -10059.522    13627.173 
   44800    1447.5427   -10510.533            0   -10061.657    13698.635 
   44900    1388.2818   -10509.824            0   -10079.325    13137.827 
   45000    1362.7923   -10506.329            0   -10083.734     12896.61 
   45100    1418.9782   -10518.815            0   -10078.797    13428.318 
   45200    1428.2612   -10516.807            0    -10073.91    13516.166 
   45300    1425.0897   -10513.562            0   -10071.648    13486.154 
   45400     1373.836   -10505.833            0   -10079.813    13001.121 
   45500    1415.5298   -10521.264            0   -10082.315    13395.685 
   45600    1406.6434   -10515.635            0   -10079.442    13311.589 
   45700     1383.877   -10507.566            0   -10078.433    13096.143 
   45800    1411.5346   -10518.764            0   -10081.054    13357.877 
   45900     1397.385    -10512.49            0   -10079.168    13223.974 
   46000     1384.758   -10493.498            0   -10064.091     13104.48 
   46100    1433.8728   -10500.254            0   -10055.617    13569.271 
   46200     1425.795   -10506.536            0   -10064.404    13492.828 
   46300    1409.0015   -10512.382            0   -10075.457    13333.905 
   46400    1399.8409   -10513.396            0   -10079.313    13247.215 
   46500    1390.9785   -10515.328            0   -10083.993    13163.347 
   46600    1397.1608   -10516.306            0   -10083.053    13221.852 
   46700    1421.8433   -10512.511            0   -10071.604    13455.431 
   46800    1428.5677   -10507.223            0   -10064.231    13519.067 
   46900    1421.7219   -10504.353            0   -10063.484    13454.283 
   47000    1424.4803   -10519.181            0   -10077.456    13480.387 
   47100    1346.6901   -10507.194            0   -10089.592    12744.229 
   47200    1415.1853   -10524.487            0   -10085.645    13392.425 
   47300    1387.6074   -10511.012            0   -10080.721    13131.444 
   47400     1409.739   -10503.367            0   -10066.214    13340.884 
   47500     1444.699    -10505.05            0   -10057.056    13671.724 
   47600    1399.6855   -10502.954            0   -10068.919    13245.744 
   47700    1392.4674   -10514.845            0   -10083.047    13177.437 
   47800    1399.7647   -10514.058            0   -10079.997    13246.493 
   47900    1429.7806   -10517.676            0   -10074.308    13530.545 
   48000    1411.0929   -10517.167            0   -10079.594    13353.697 
   48100    1349.4842    -10515.42            0   -10096.952     12770.67 
   48200    1385.7128   -10524.621            0   -10094.918    13113.515 
   48300    1414.8177   -10526.093            0   -10087.365    13388.946 
   48400    1402.9778   -10512.841            0   -10077.784      13276.9 
   48500    1390.8837   -10503.827            0   -10072.521     13162.45 
   48600    1407.2451   -10510.905            0   -10074.525    13317.283 
   48700    1418.8146   -10526.598            0    -10086.63     13426.77 
   48800    1379.1265   -10532.317            0   -10104.657    13051.186 
   48900    1371.1678   -10521.657            0   -10096.465    12975.871 
   49000    1399.4966   -10518.453            0   -10084.476    13243.957 
   49100    1396.9641   -10512.281            0    -10079.09    13219.991 
   49200    1412.6594   -10510.926            0   -10072.867    13368.521 
   49300    1440.4041   -10505.211            0   -10058.549     13631.08 
   49400    1419.8961   -10490.589            0   -10050.286    13437.005 
   49500    1436.7291    -10509.91            0   -10064.388    13596.302 
   49600     1409.782   -10508.709            0   -10071.543    13341.291 
   49700    1400.7789   -10511.015            0    -10076.64    13256.091 
   49800    1400.2019   -10515.757            0   -10081.561    13250.631 
   49900    1388.5006   -10525.364            0   -10094.797    13139.897 
   50000    1369.7275   -10531.463            0   -10106.717    12962.241 
Loop time of 9179.72 on 1 procs for 50000 steps with 2400 atoms

Performance: 0.471 ns/day, 50.998 hours/ns, 5.447 timesteps/s
97.9% CPU use with 1 MPI tasks x 1 OpenMP threads

MPI task timing breakdown:
Section |  min time  |  avg time  |  max time  |%varavg| %total
---------------------------------------------------------------
Pair    | 9140.9     | 9140.9     | 9140.9     |   0.0 | 99.58
Neigh   | 32.117     | 32.117     | 32.117     |   0.0 |  0.35
Comm    | 2.8107     | 2.8107     | 2.8107     |   0.0 |  0.03
Output  | 0.015254   | 0.015254   | 0.015254   |   0.0 |  0.00
Modify  | 3.0138     | 3.0138     | 3.0138     |   0.0 |  0.03
Other   |            | 0.8399     |            |       |  0.01

Nlocal:        2400.00 ave        2400 max        2400 min
Histogram: 1 0 0 0 0 0 0 0 0 0
Nghost:        4697.00 ave        4697 max        4697 min
Histogram: 1 0 0 0 0 0 0 0 0 0
Neighs:         0.00000 ave           0 max           0 min
Histogram: 1 0 0 0 0 0 0 0 0 0
FullNghs:      234442.0 ave      234442 max      234442 min
Histogram: 1 0 0 0 0 0 0 0 0 0

Total # of neighbors = 234442
Ave neighs/atom = 97.684167
Neighbor list builds = 2294
Dangerous builds = 0

velocity        all scale ${Tsim}
velocity        all scale 1400
unfix           1

#-----------------------------------------
# 2nd equilibration run
compute         ke all ke/atom
variable        temp atom c_ke/1.5

fix             1 all nve

compute         layers all chunk/atom bin/1d z lower 0.05 units reduced # <--- delta z ?
fix             2 all ave/chunk 10 100 1000 layers v_temp file profile.mp # <--- use every 10 steps, 100 times, repeat every 1000 steps
fix             3 all thermal/conductivity 10 z 20 # <--- perform kintic energy swap every 10 steps, using 20 bins

variable        tdiff equal f_2[11][3]-f_2[1][3]
thermo_style    custom step temp epair etotal f_3 v_tdiff
thermo          1000
#thermo_modify   colname f_3 E_delta colname v_tdiff dTemp_step


run 200000
Per MPI rank memory allocation (min/avg/max) = 4.234 | 4.234 | 4.234 Mbytes
Step Temp E_pair TotEng f_3 v_tdiff 
   50000         1400    -10531.46   -10097.327            0            0 
   51000    1354.5992   -10517.373   -10097.318    53.827699  0.036790284 
   52000    1379.0023   -10524.919   -10097.297    100.26086  0.065027381 
   53000    1346.3664   -10514.797   -10097.295    145.82491  0.067718984 
   54000    1411.7217   -10535.052   -10097.284    190.19782  0.075175581 
   55000    1367.4552   -10521.311   -10097.269    232.90432  0.075733269 
   56000    1338.5332    -10512.35   -10097.277    277.90515  0.074857423 
   57000     1352.653   -10516.735   -10097.284    324.06848  0.071407938 
   58000    1393.9119   -10529.533   -10097.288    367.22367  0.078908851 
   59000    1386.5332   -10527.229   -10097.272    409.24387  0.086350883 
   60000     1354.064   -10517.146   -10097.258    450.76251  0.080867304 
   61000    1381.2334   -10525.588   -10097.274    494.26122  0.075664597 
   62000    1354.6254   -10517.324   -10097.262    536.84916  0.087995371 
   63000    1396.3262   -10530.272   -10097.279    578.55896  0.083755977 
   64000    1366.5918   -10521.049   -10097.275    619.93835  0.087876648 
   65000     1371.457   -10522.553   -10097.271    663.03582  0.080471018 
   66000    1359.5526   -10518.884   -10097.293    705.07199  0.085449785 
   67000    1381.2206   -10525.598   -10097.288    746.76962  0.075817638 
   68000    1384.6989   -10526.666   -10097.278    791.30149  0.080585826 
   69000    1352.1578   -10516.582   -10097.285    832.94918  0.085470756 
   70000    1340.9189   -10513.058   -10097.245    875.00015  0.085969777 
   71000    1356.7904   -10517.998   -10097.264    917.72033  0.079953798 
   72000    1367.6688   -10521.361   -10097.254    962.21369   0.08159217 
   73000    1389.7768    -10528.23   -10097.268    1006.2632  0.080249963 
   74000     1377.742   -10524.508   -10097.277    1050.9046  0.082991072 
   75000    1378.1021   -10524.595   -10097.252    1092.4194  0.078054848 
   76000    1367.1033   -10521.192    -10097.26    1134.8585  0.082277735 
   77000    1386.2146    -10527.12   -10097.262    1180.2879  0.078025191 
   78000    1382.2945   -10525.904   -10097.262    1223.0536  0.081625399 
   79000    1383.1321   -10526.164   -10097.262    1264.3676  0.085915084 
   80000    1368.8924   -10521.742   -10097.255      1305.86  0.082204327 
   81000    1376.4772   -10524.104   -10097.266    1346.2757  0.084707626 
   82000    1367.5965   -10521.345    -10097.26    1388.2752  0.085516222 
   83000    1413.1925   -10535.498   -10097.274    1430.5206   0.08270379 
   84000      1389.24   -10528.053   -10097.256    1473.4274  0.083225834 
   85000    1371.2853   -10522.493   -10097.264    1515.9484  0.083685617 
   86000    1358.0811   -10518.396   -10097.261     1557.774  0.080945539 
   87000    1368.3849   -10521.569    -10097.24    1599.2891   0.08208809 
   88000    1377.9609   -10524.559    -10097.26    1639.9629  0.077119918 
   89000    1363.7303   -10520.127   -10097.241    1682.2277  0.079951615 
   90000     1389.366    -10528.08   -10097.244    1723.8957  0.079734045 
   91000    1341.5733   -10513.233   -10097.218    1767.4306  0.075339908 
   92000    1369.6198   -10521.953   -10097.241    1811.3602  0.079545129 
   93000    1345.3314   -10514.405   -10097.225    1853.1646   0.08075466 
   94000    1404.7926   -10532.863   -10097.244    1894.6153  0.084409834 
   95000    1336.8471   -10511.772   -10097.223    1936.1022  0.080461178 
   96000    1354.4469   -10517.213   -10097.206    1979.9199  0.083078665 
   97000    1363.8525   -10520.148   -10097.224    2020.5098  0.077767303 
   98000    1406.0092   -10533.215   -10097.218    2064.5189  0.079072383 
   99000    1344.1874    -10514.04   -10097.214    2105.6019  0.089903032 
  100000    1369.3115   -10521.831   -10097.214    2148.3378   0.08045054 
  101000    1364.0521   -10520.202   -10097.216       2189.5  0.083010766 
  102000    1355.7866   -10517.607   -10097.185     2236.079   0.07846581 
  103000    1363.3531    -10519.96   -10097.191    2282.3017  0.078028181 
  104000    1372.4103    -10522.77   -10097.192     2325.574  0.078812697 
  105000    1368.2212   -10521.482   -10097.204    2367.4119  0.079683614 
  106000     1376.217   -10523.946   -10097.188    2407.9873  0.083801695 
  107000    1366.8462   -10521.046   -10097.194    2448.6046  0.079512071 
  108000    1368.9407   -10521.671   -10097.169    2491.2261  0.078183274 
  109000    1353.2978   -10516.814   -10097.163    2532.3861  0.078524075 
  110000    1354.4358   -10517.165   -10097.161    2575.7175  0.087104652 
  111000    1355.5855   -10517.543   -10097.183    2619.4998   0.08854757 
  112000    1334.6053   -10510.982   -10097.128    2660.2826  0.077822232 
  113000    1345.9346   -10514.521   -10097.154    2703.3406   0.08090087 
  114000    1363.3931    -10519.93   -10097.148    2745.2088  0.087282414 
  115000    1389.0581   -10527.902   -10097.162    2787.3948  0.078383753 
  116000    1361.6954     -10519.4   -10097.145      2828.83  0.079894219 
  117000    1371.9419    -10522.59   -10097.157    2871.1919  0.090770778 
  118000    1353.8628   -10516.975   -10097.148    2912.2896  0.077597336 
  119000    1362.2409    -10519.57   -10097.146     2956.134   0.07844488 
  120000    1384.2691   -10526.398   -10097.143    2998.5791   0.07726768 
  121000    1351.1342   -10516.118   -10097.138    3040.8946  0.078621613 
  122000    1369.2015   -10521.709   -10097.126    3084.8502  0.079189632 
  123000    1358.1956   -10518.309   -10097.139    3128.7558  0.068025347 
  124000    1398.2276   -10530.713   -10097.129    3172.8646  0.080300495 
  125000    1369.0882   -10521.676   -10097.128    3215.0718   0.07523741 
  126000    1387.2229   -10527.317   -10097.146    3259.8901  0.078980752 
  127000    1377.5644   -10524.319   -10097.143    3303.6906  0.081432639 
  128000    1379.7865   -10525.007   -10097.142    3346.7353  0.073620588 
  129000    1373.5491   -10523.082   -10097.151    3388.2981  0.075145593 
  130000    1388.4742   -10527.687   -10097.128      3430.81  0.075546294 
  131000    1379.4925   -10524.909   -10097.135    3474.0647  0.083121207 
  132000    1394.7519   -10529.635   -10097.129    3518.3297  0.080327443 
  133000    1388.0229   -10527.566   -10097.147    3562.1933   0.08103765 
  134000    1351.9708   -10516.345   -10097.105    3607.4942  0.079965926 
  135000    1357.3182   -10518.021   -10097.124    3653.0048  0.076834594 
  136000    1397.1237     -10530.4   -10097.159     3696.923  0.079655423 
  137000    1389.3666    -10527.97   -10097.134    3739.7624  0.077249776 
  138000    1383.2499   -10526.067   -10097.128    3782.1343   0.08223122 
  139000    1371.3192    -10522.36   -10097.121    3827.4313  0.075194565 
  140000    1358.6161   -10518.427   -10097.127      3871.65  0.077280996 
  141000    1394.5273   -10529.559   -10097.123    3914.0044  0.082647251 
  142000    1381.0394   -10525.363    -10097.11    3956.1843  0.079760318 
  143000    1375.3514    -10523.61   -10097.121    4001.0042  0.082988133 
  144000    1402.2367    -10531.92   -10097.093    4046.1362  0.073925104 
  145000    1361.9837   -10519.457   -10097.113    4090.2986  0.081625863 
  146000    1357.1094   -10517.933     -10097.1    4135.4231  0.071709318 
  147000    1358.8053   -10518.462   -10097.103    4180.3635   0.07742233 
  148000    1386.0952     -10526.9   -10097.079      4223.02  0.082917001 
  149000    1382.9716   -10525.955   -10097.102    4265.2337  0.080693379 
  150000    1363.0657   -10519.771   -10097.092    4307.8064  0.082322246 
  151000    1344.2572   -10513.914   -10097.067    4350.4938  0.082773197 
  152000    1372.7702   -10522.764   -10097.074    4391.8738   0.07719604 
  153000    1367.9547   -10521.283   -10097.087    4434.5823  0.077251211 
  154000    1364.7614   -10520.276   -10097.071    4478.9503  0.079366087 
  155000    1352.1217   -10516.333   -10097.047    4519.3642  0.083970297 
  156000    1383.1758    -10525.98   -10097.064    4562.2884   0.07821055 
  157000    1373.1262   -10522.849   -10097.049    4606.7719  0.084820355 
  158000    1369.3856   -10521.696   -10097.057    4648.6773  0.085802241 
  159000    1371.7102   -10522.409   -10097.049    4687.7709  0.087644651 
  160000    1372.1387   -10522.531   -10097.038    4729.3967  0.085778679 
  161000      1369.85   -10521.825   -10097.041    4772.7558  0.083220579 
  162000    1356.8472   -10517.805   -10097.053    4815.9385  0.074932273 
  163000    1378.6631    -10524.55   -10097.033     4859.569  0.079815393 
  164000    1382.1471   -10525.635   -10097.038    4903.5047  0.074980776 
  165000    1376.9059   -10524.013   -10097.041    4946.1918  0.085183843 
  166000     1377.739   -10524.282   -10097.052    4988.1626  0.083429334 
  167000     1402.874   -10532.071   -10097.047    5031.8352  0.080332069 
  168000    1334.5465   -10510.869   -10097.033    5073.9695  0.084568499 
  169000    1352.4552   -10516.415   -10097.025    5115.3081  0.087364301 
  170000    1395.3616   -10529.743   -10097.048    5157.5549  0.085363053 
  171000     1375.799   -10523.668   -10097.039    5200.4815  0.085211661 
  172000     1356.624   -10517.719   -10097.036    5244.7103   0.08502016 
  173000    1387.0698   -10527.157   -10097.034    5286.5078  0.079568791 
  174000    1372.0252   -10522.499   -10097.041    5329.1539  0.084907816 
  175000    1352.6279   -10516.461   -10097.018    5373.3393  0.081695954 
  176000    1383.6911   -10526.096    -10097.02     5415.619  0.084702156 
  177000    1392.9248   -10528.975   -10097.035    5458.0531  0.085595329 
  178000      1368.46   -10521.354   -10097.001    5501.4275  0.084038538 
  179000       1370.4   -10521.984    -10097.03    5543.0781  0.082587018 
  180000    1372.6136   -10522.659   -10097.018    5585.7395   0.07436762 
  181000    1364.2132   -10520.043   -10097.007    5628.8176  0.082296543 
  182000    1367.6413   -10521.105   -10097.007    5669.9535  0.082421409 
  183000    1410.6989    -10534.48    -10097.03    5711.4741  0.083848103 
  184000    1352.0482   -10516.271   -10097.007    5753.3196   0.07118808 
  185000    1377.5053   -10524.177   -10097.019    5796.4916  0.078518037 
  186000    1378.9687   -10524.625   -10097.014    5838.7984   0.07877042 
  187000    1365.4571   -10520.425   -10097.003    5877.8891  0.083646238 
  188000    1379.2848   -10524.713   -10097.003    5919.0362  0.084612698 
  189000    1370.6301   -10522.023   -10096.998    5963.7844  0.087049754 
  190000    1369.6985   -10521.737   -10097.001    6007.5279  0.080726074 
  191000    1346.6386   -10514.573   -10096.987    6049.9565  0.089372586 
  192000    1403.3219   -10532.181   -10097.017    6092.6947   0.08131862 
  193000    1334.4004   -10510.784   -10096.993    6135.5253  0.079898282 
  194000    1375.4083    -10523.52   -10097.012    6177.1765  0.079261973 
  195000    1366.8358   -10520.845   -10096.996    6219.0705  0.078742701 
  196000    1375.1655   -10523.442    -10097.01     6264.047  0.071785527 
  197000    1371.8361   -10522.407   -10097.008    6305.3189   0.07721592 
  198000    1402.1396   -10531.788   -10096.991    6349.8836  0.076209031 
  199000    1364.1976   -10520.018   -10096.987    6390.5289  0.075558616 
  200000    1381.6817   -10525.427   -10096.974    6430.7326  0.081221924 
  201000    1383.1009   -10525.881   -10096.988    6473.4074  0.077273357 
  202000    1372.7627   -10522.661   -10096.974    6518.8635  0.074263688 
  203000     1393.827     -10529.2   -10096.981    6561.4234  0.080718052 
  204000    1364.6528    -10520.14   -10096.968    6603.6379   0.08601545 
  205000    1355.0183   -10517.157   -10096.973    6647.6613  0.082076853 
  206000    1361.3923   -10519.124   -10096.963     6687.656  0.080769206 
  207000    1372.1485   -10522.467    -10096.97    6731.1758  0.090310027 
  208000    1365.3368   -10520.345    -10096.96    6773.0916  0.091985304 
  209000    1365.2017   -10520.323   -10096.981    6815.0732  0.086630185 
  210000    1375.0868   -10523.384   -10096.976    6857.6898  0.078884777 
  211000    1376.9032   -10523.961    -10096.99    6902.5209  0.082912399 
  212000    1366.2692   -10520.646   -10096.972    6945.0143  0.083989967 
  213000    1366.2426   -10520.637   -10096.972     6986.249  0.085539838 
  214000    1343.8347   -10513.666   -10096.949    7026.9994  0.081452656 
  215000    1388.8455   -10527.661   -10096.987    7069.9576   0.07645918 
  216000    1366.4236   -10520.716   -10096.995    7113.6674  0.084661794 
  217000    1374.3243   -10523.168   -10096.997    7158.0624  0.078387633 
  218000    1361.8146   -10519.266   -10096.974    7203.6513  0.077142609 
  219000    1368.7166   -10521.436   -10097.003    7244.2277  0.082409997 
  220000    1356.7789    -10517.71    -10096.98    7285.0349  0.083886366 
  221000    1389.3434    -10527.81   -10096.981    7329.4838  0.078933042 
  222000      1362.13   -10519.353   -10096.963    7371.3968  0.076887687 
  223000    1369.1485   -10521.533   -10096.967    7414.6491  0.082288413 
  224000    1380.6998   -10525.116   -10096.968    7456.7674  0.092230144 
  225000    1393.0851   -10528.946   -10096.957    7497.9012  0.077983022 
  226000    1374.8418   -10523.288   -10096.956    7544.1061  0.078464498 
  227000    1379.1774   -10524.621   -10096.945    7587.9591  0.073645099 
  228000    1350.4805   -10515.739   -10096.962    7629.9994  0.076734456 
  229000    1402.9754   -10532.015   -10096.959    7670.8056  0.078733628 
  230000    1336.7365   -10511.446   -10096.931    7714.9265  0.080034888 
  231000    1353.6744   -10516.689   -10096.922    7759.1591  0.073319528 
  232000    1360.9812   -10518.975   -10096.941    7802.4308  0.083147887 
  233000    1370.0143    -10521.75   -10096.915    7845.6804  0.079030984 
[...]
Neighs:         0.00000 ave           0 max           0 min
Histogram: 1 0 0 0 0 0 0 0 0 0
FullNghs:      234730.0 ave      234730 max      234730 min
Histogram: 1 0 0 0 0 0 0 0 0 0

Total # of neighbors = 234730
Ave neighs/atom = 97.804167
Neighbor list builds = 9707
Dangerous builds = 0

#------------------------------------------
# thermal conductivity calculation
fix             3 all thermal/conductivity 10 z 20

variable start_time equal time
variable kappa equal (f_3/(time-${start_time})/(lx*ly)/2.0)*(lz/2.0)/f_ave
variable kappa equal (f_3/(time-250)/(lx*ly)/2.0)*(lz/2.0)/f_ave

fix             ave all ave/time 1 1 1000 v_tdiff ave running
thermo_style    custom step temp epair etotal f_3 v_tdiff f_ave

run 200000
Per MPI rank memory allocation (min/avg/max) = 4.485 | 4.485 | 4.485 Mbytes
Step Temp E_pair TotEng f_3 v_tdiff f_ave 
  250000    1351.0815   -10515.878   -10096.914            0  0.077168308  0.077168308 
  251000    1377.8961    -10524.18   -10096.901    41.769185   0.08093544  0.079051874 
  252000    1404.1977   -10532.327   -10096.892    85.622122  0.083879658  0.080661135 
  253000    1389.1261   -10527.661     -10096.9    129.26252  0.087503879  0.082371821 
  254000    1375.9699   -10523.574   -10096.893    169.91948   0.08535706  0.082968869 
  255000    1358.0902   -10518.026   -10096.889    213.72415  0.076574392  0.081903123 
  256000    1377.8421   -10524.161   -10096.899     259.5248  0.075865058  0.081040542 
  257000    1390.7477   -10528.186   -10096.922     301.7555  0.083991091  0.081409361 
  258000    1387.4419   -10527.145   -10096.906    346.27584  0.075119662  0.080710505 
  259000    1389.6543   -10527.843   -10096.918    389.38748  0.076595976  0.080299052 
  260000    1385.3004   -10526.461   -10096.886    432.78456  0.080873004   0.08035123 
  261000    1399.1228   -10530.761     -10096.9    474.38046  0.080983626  0.080403929 
  262000    1344.2677   -10513.726   -10096.875    515.61912  0.082803978  0.080588548 
  263000    1343.2081   -10513.405   -10096.883    559.37255  0.078398656  0.080432128 
  264000    1374.8839   -10523.219   -10096.874    603.08712  0.083165345  0.080614342 
  265000    1336.1092   -10511.198   -10096.877    646.32725  0.079499609  0.080544671 
  266000    1381.3995   -10525.258   -10096.893    689.49949  0.082620454  0.080666776 
  267000    1357.5352   -10517.841   -10096.876    730.87932  0.087945984  0.081071177 
  268000    1373.7099   -10522.875   -10096.894    773.43994  0.085966791   0.08132884 
  269000    1359.3618    -10518.42   -10096.889     815.5378  0.082085594  0.081366678 
  270000    1355.1393   -10517.114   -10096.892    859.83843  0.078020959  0.081207358 
  271000    1367.5957    -10520.97   -10096.885    902.53971  0.076871324  0.081010266 
  272000    1366.1329    -10520.53   -10096.899    944.66716  0.079592377  0.080948618 
  273000    1352.9251   -10516.418   -10096.883    985.90038  0.081681273  0.080979146 
  274000    1396.7435   -10530.007   -10096.884     1030.076  0.080445212  0.080957788 
  275000     1365.007   -10520.176   -10096.894    1075.5328  0.085339396  0.081126312 
  276000    1401.1483   -10531.373   -10096.884    1118.3841  0.081237022  0.081130412 
  277000    1359.4414   -10518.438   -10096.881    1160.6265  0.075999942  0.080947181 
  278000    1370.6562   -10521.922   -10096.888    1204.1971  0.077735976   0.08083645 
  279000    1374.1021   -10522.996   -10096.894    1247.1485  0.078101238  0.080745276 
  280000    1370.6988   -10521.926   -10096.879    1290.6995  0.082322646  0.080796159 
  281000    1376.4615   -10523.681   -10096.847      1331.01  0.082194697  0.080839863 
  282000    1388.1533   -10527.331   -10096.872     1375.339  0.083631787  0.080924467 
  283000    1369.2522   -10521.476   -10096.877    1417.8557  0.084677032  0.081034837 
  284000    1367.1909   -10520.826   -10096.867    1459.9319  0.085953336  0.081175365 
  285000    1390.0449   -10527.921   -10096.875    1499.9887  0.082254783  0.081205349 
  286000    1368.4588   -10521.205   -10096.853    1541.7456  0.086405979  0.081345907 
  287000    1379.9883   -10524.799   -10096.871    1581.8591  0.083642294  0.081406338 
  288000    1367.0047   -10520.774   -10096.873    1623.6103  0.085775356  0.081518364 
  289000    1364.0003   -10519.814   -10096.845    1665.5782  0.081602069  0.081520457 
  290000    1341.4526   -10512.837   -10096.859    1705.7864  0.080154369  0.081487137 
  291000    1373.7546   -10522.839   -10096.844    1748.1297  0.082781985  0.081517967 
  292000    1361.1101   -10518.928   -10096.854    1792.6041  0.074342116  0.081351087 
  293000    1357.0774   -10517.674   -10096.851    1835.8678  0.076874816  0.081249353 
  294000    1383.3714    -10525.83   -10096.853    1877.8071  0.082020406  0.081266488 
  295000    1396.0596    -10529.76   -10096.849    1918.6008  0.077400496  0.081182445 
  296000    1359.1727   -10518.298   -10096.825    1958.4364   0.08731042  0.081312827 
  297000    1338.8945    -10512.01   -10096.825    2001.9946  0.081231514  0.081311133 
  298000    1404.4496   -10532.346   -10096.833     2046.078  0.080595136  0.081296521 
  299000    1398.4656   -10530.495   -10096.838    2088.8107  0.073955361  0.081149698 
  300000    1355.7003   -10517.199   -10096.803    2133.1582  0.082347974  0.081173193 
  301000     1323.125   -10507.074    -10096.78    2174.8715  0.079910947  0.081148919 
  302000    1368.4481   -10521.133   -10096.784    2216.7431  0.077136349   0.08107321 
  303000    1399.2693   -10530.716   -10096.809    2257.7176  0.082575846  0.081101037 
  304000    1401.5604   -10531.414   -10096.797    2299.4593  0.080692889  0.081093616 
  305000    1389.0467   -10527.555   -10096.818    2342.0681  0.077489687   0.08102926 
  306000     1350.986   -10515.737   -10096.803    2385.3931   0.07614352  0.080943546 
  307000    1361.2228   -10518.922   -10096.813    2428.4563  0.076840688  0.080872807 
  308000    1396.7398   -10529.919   -10096.797    2472.5013  0.081417607   0.08088204 
  309000    1361.4396   -10518.988   -10096.813    2514.7337  0.083780682  0.080930351 
  310000    1374.1408   -10522.905   -10096.791    2557.6532  0.070894133  0.080765823 
  311000    1368.8548   -10521.277   -10096.802    2600.6951  0.077268403  0.080709413 
  312000    1393.6169   -10528.991   -10096.837    2644.9572  0.081873985  0.080727898 
  313000    1346.8808    -10514.45   -10096.789    2687.3325  0.085127959  0.080796649 
  314000    1402.1588   -10531.615   -10096.813    2729.9821     0.085663  0.080871516 
  315000    1392.2043   -10528.509   -10096.793    2772.4435  0.088411855  0.080985764 
  316000    1369.0638   -10521.347   -10096.807    2814.2475  0.080103363  0.080972594 
  317000    1394.5147   -10529.227   -10096.794    2855.5955  0.081778275  0.080984442 
  318000     1405.951   -10532.775   -10096.797    2901.3362  0.076610733  0.080921055 
  319000    1365.5209   -10520.234   -10096.793    2943.9711  0.081548499  0.080930018 
  320000     1386.512   -10526.769   -10096.818    2986.7156  0.078937255  0.080901951 
  321000    1387.7831   -10527.167   -10096.822     3027.587  0.078015754  0.080861865 
  322000    1388.9216   -10527.485   -10096.788    3070.2626  0.079612474   0.08084475 
  323000    1364.8248   -10520.021   -10096.795    3113.7066  0.077154537  0.080794882 
  324000    1385.0817   -10526.331   -10096.824    3159.0072  0.078077498  0.080758651 
  325000    1386.0025   -10526.595   -10096.802    3200.0868  0.080005649  0.080748743 
  326000     1379.849   -10524.681   -10096.796    3241.0302  0.077289318  0.080703815 
  327000    1377.6804   -10524.033   -10096.821     3282.939  0.083409654  0.080738505 
  328000    1385.1489   -10526.328     -10096.8    3324.6288   0.08484629  0.080790503 
  329000    1356.7223   -10517.495   -10096.782    3369.8751  0.082129921  0.080807245 
  330000      1384.47   -10526.113   -10096.796    3414.5848  0.080943948  0.080808933 
  331000    1345.8323   -10514.101   -10096.765    3456.5638  0.086837159  0.080882448 
  332000    1378.8013    -10524.36   -10096.801    3497.8378   0.08428741  0.080923472 
  333000    1360.5578   -10518.675   -10096.773    3540.4247  0.080610104  0.080919741 
  334000    1361.2233   -10518.864   -10096.756    3584.3013  0.077669489  0.080881503 
  335000    1362.1734   -10519.147   -10096.744    3627.9534  0.082912778  0.080905122 
  336000    1386.9191    -10526.85   -10096.773    3670.6771  0.079632961    0.0808905 
  337000    1346.0043    -10514.14    -10096.75    3713.0227  0.077121847  0.080847674 
  338000    1381.1797    -10525.06   -10096.763    3755.9904  0.084747177  0.080891489 
  339000     1377.945   -10524.062   -10096.769    3797.3979  0.084859777  0.080935581 
  340000    1395.8796    -10529.61   -10096.755    3840.9626  0.081366505  0.080940316 
  341000    1375.8888   -10523.427    -10096.77      3883.37  0.082000088  0.080951836 
  342000    1380.0217   -10524.685   -10096.747    3927.2769    0.0836806  0.080981177 
  343000    1380.0191    -10524.69   -10096.753    3969.3668  0.081591768  0.080987673 
  344000    1373.4863   -10522.668   -10096.757    4011.9027  0.084062853  0.081020043 
  345000    1363.6875   -10519.605   -10096.733    4056.0283  0.080917526  0.081018975 
  346000    1366.9128   -10520.616   -10096.743    4098.1968  0.079457448  0.081002877 
  347000    1385.7532   -10526.457   -10096.742    4140.9029  0.086481053  0.081058777 
  348000    1357.8759   -10517.797   -10096.726    4186.2029  0.075280232  0.081000408 
  349000    1373.1397    -10522.54   -10096.736    4229.5813  0.080043961  0.080990843 
  350000    1399.5205   -10530.726   -10096.741    4273.6793  0.079403957  0.080975131 
  351000    1353.7893   -10516.537   -10096.734    4317.2207  0.084245685  0.081007196 
  352000    1345.0556   -10513.825    -10096.73     4360.197  0.079389777  0.080991493 
  353000    1371.2464   -10521.964   -10096.747       4404.1  0.083970024  0.081020132 
  354000    1377.7178   -10523.972   -10096.748    4446.6119  0.080236275  0.081012667 
  355000    1366.1518   -10520.385   -10096.748    4490.1875  0.080511812  0.081007942 
  356000    1371.3993   -10522.001   -10096.737    4533.8742  0.086226191  0.081056711 
  357000    1379.9111   -10524.684    -10096.78    4576.7898  0.084686117  0.081090316 
  358000    1357.0815   -10517.573   -10096.749    4618.7526  0.088672571  0.081159878 
  359000    1377.9596    -10524.04   -10096.742    4663.2586   0.08560596  0.081200297 
  360000    1386.5357    -10526.73   -10096.773    4706.6818  0.082166462  0.081209001 
  361000    1369.4715   -10521.409   -10096.743    4750.8486  0.075123819  0.081154669 
  362000     1364.947   -10520.014    -10096.75    4793.4432  0.080113269  0.081145453 
  363000    1346.8775    -10514.39    -10096.73    4836.5966  0.078105322  0.081118786 
  364000    1359.4681   -10518.304   -10096.739    4879.5092  0.078351675  0.081094724 
  365000    1392.8166   -10528.671   -10096.765    4923.6769  0.083678968  0.081117002 
  366000    1368.1485   -10521.027   -10096.771    4967.3979  0.084679345  0.081147449 
  367000    1363.9671   -10519.729   -10096.769    5010.9546  0.077239923  0.081114334 
  368000    1341.4581   -10512.722   -10096.742    5054.3311  0.079670169  0.081102199 
  369000     1375.932   -10523.421   -10096.751    5099.3431  0.081073076  0.081101956 
  370000    1389.9022    -10527.75   -10096.748    5141.4273   0.09185345  0.081190811 
  371000    1384.9404   -10526.212   -10096.749     5183.668  0.085718215  0.081227921 
  372000    1356.2821   -10517.327   -10096.751    5225.8259  0.080534994  0.081222288 
  373000    1398.5443   -10530.454   -10096.772    5269.0886  0.074595865  0.081168849 
  374000    1343.0345   -10513.239   -10096.771    5312.1758  0.083595786  0.081188264 
  375000    1361.5381   -10518.979   -10096.772    5353.4154  0.084384456  0.081213631 
  376000    1369.3317   -10521.396   -10096.773    5398.1522  0.088651416  0.081272196 
  377000    1407.7792   -10533.322   -10096.777    5442.4698  0.077878444  0.081245682 
  378000    1376.1047   -10523.502   -10096.779    5486.2675  0.086595286  0.081287152 
  379000    1381.8998   -10525.283   -10096.763    5527.8557  0.076228869  0.081248242 
  380000    1358.4554   -10518.031   -10096.781    5570.5413  0.088112417  0.081300641 
  381000    1385.5288   -10526.418   -10096.772    5613.9439   0.08497295  0.081328461 
  382000    1350.0496   -10515.405   -10096.762    5656.8783  0.074995304  0.081280843 
  383000    1350.4489   -10515.549   -10096.781    5700.2128  0.081597704  0.081283208 
  384000    1376.5753   -10523.629    -10096.76    5743.6555  0.071979542  0.081214292 
  385000     1336.111   -10511.097   -10096.775     5787.699  0.078491661  0.081194273 
  386000     1366.252   -10520.436   -10096.768     5831.156  0.074851536  0.081147975 
  387000    1402.9396   -10531.823   -10096.779    5875.6557  0.090508985  0.081215809 
  388000    1370.7984   -10521.858   -10096.781    5919.5597  0.075800567   0.08117685 
  389000    1385.9145   -10526.556    -10096.79    5962.7494  0.080329326  0.081170796 
  390000     1375.693   -10523.386    -10096.79    6004.5136  0.087398669  0.081214966 
  391000    1361.0075   -10518.844   -10096.802    6048.4094   0.08656199  0.081252621 
  392000      1393.18   -10528.844   -10096.825     6090.424  0.083039184  0.081265114 
  393000    1334.5727   -10510.637   -10096.792    6131.6154  0.081963413  0.081269963 
  394000    1369.4774   -10521.497   -10096.829    6174.4809  0.079048422  0.081254642 
  395000    1395.7852   -10529.637   -10096.811    6217.2565  0.082489914  0.081263103 
  396000    1387.6972   -10527.142   -10096.824    6260.6211  0.077057958  0.081234497 
  397000      1379.78   -10524.672   -10096.809    6304.9298    0.0808056  0.081231599 
  398000    1365.6083   -10520.285   -10096.817    6344.9263  0.086394143  0.081266247 
  399000    1394.0438    -10529.11   -10096.824    6389.2065  0.085006105  0.081291179 
  400000    1375.4632   -10523.338   -10096.814    6432.8301  0.089035324  0.081342465 
  401000    1354.7531   -10516.918   -10096.816    6475.4468  0.081625074  0.081344324 
  402000    1394.3976   -10529.226    -10096.83    6519.3964  0.090140791  0.081401817 
  403000    1357.7762   -10517.852   -10096.812    6561.7236  0.086316448  0.081433731 
  404000    1348.6927   -10515.033    -10096.81    6607.0064   0.08059312  0.081428307 
  405000     1375.356   -10523.322   -10096.831    6650.7008  0.079679093  0.081417094 
  406000    1393.7151   -10529.021   -10096.837    6693.8126  0.077133602  0.081389811 
  407000    1370.7953   -10521.907    -10096.83    6737.8371  0.085624178  0.081416611 
  408000    1381.5445   -10525.242   -10096.832    6780.1356  0.081351427  0.081416201 
  409000    1352.5118   -10516.246   -10096.839    6823.0632  0.075914229  0.081381814 
  410000    1353.4112   -10516.501   -10096.815    6870.4281   0.08070387  0.081377603 
  411000    1371.5269   -10522.151   -10096.848    6912.5155  0.087170726  0.081413363 
  412000    1359.3421   -10518.392   -10096.866    6954.8357  0.085661949  0.081439428 
  413000    1336.4372    -10511.27   -10096.847    6997.0121  0.084992298  0.081461092 
  414000    1373.5098    -10522.79   -10096.871    7041.5283    0.0732745  0.081411476 
  415000    1382.4199   -10525.529   -10096.848    7084.0212  0.080969206  0.081408812 
  416000    1368.8799   -10521.334   -10096.851    7127.4574  0.079915394  0.081399869 
  417000    1388.7322    -10527.48   -10096.841    7169.8717   0.07978255  0.081390242 
  418000    1370.0673   -10521.698   -10096.847    7213.8655  0.073000382  0.081340598 
  419000    1421.7694   -10537.732   -10096.849    7258.1541  0.073865698  0.081296628 
  420000    1370.9485   -10521.971   -10096.846     7302.861  0.074585732  0.081257383 
  421000     1385.415   -10526.478   -10096.867    7344.6724  0.073059317   0.08120972 
  422000    1379.7099   -10524.689   -10096.848    7388.9605  0.075742163  0.081178115 
  423000    1405.8271   -10532.816   -10096.876     7433.117  0.079635798  0.081169251 
  424000    1342.3289   -10513.087   -10096.837    7477.6316  0.077372631  0.081147556 
  425000     1355.116   -10517.066   -10096.852    7521.2065  0.082133032  0.081153156 
  426000    1362.2861   -10519.263   -10096.824    7564.4967  0.080248543  0.081148045 
  427000    1373.6883    -10522.83   -10096.856    7605.4559  0.077678239  0.081128552 
  428000    1354.9097   -10516.992   -10096.841    7650.7465  0.067680988  0.081053426 
  429000    1374.1189    -10522.95   -10096.843    7696.2518  0.073869661  0.081013516 
  430000    1368.7113   -10521.275   -10096.845    7740.6739  0.072499024  0.080966474 
  431000     1409.507   -10533.916   -10096.835    7782.9156  0.082237002  0.080973455 
  432000    1370.9643   -10521.973   -10096.843    7825.2682  0.078380703  0.080959287 
  433000    1351.7353   -10515.997   -10096.831    7867.8702  0.080625646  0.080957474 
  434000    1368.7955    -10521.27   -10096.813    7910.6533  0.077756793  0.080940173 
  435000    1370.2321   -10521.697   -10096.795    7952.0042  0.088096133  0.080978646 
  436000    1366.0554   -10520.431   -10096.824    7995.2861  0.084218575  0.080995972 
  437000    1371.3064   -10522.033   -10096.798     8037.999   0.08174144  0.080999937 
  438000    1374.2992   -10522.985   -10096.822    8080.4548  0.079420306  0.080991579 
  439000    1398.6857    -10530.53   -10096.805    8124.0334  0.085674187  0.081016224 
  440000    1368.6584   -10521.224   -10096.809    8163.9736  0.089989079  0.081063203 
  441000    1385.9791   -10526.604   -10096.818    8206.5659  0.082703153  0.081071744 
  442000    1360.4845   -10518.679   -10096.799    8248.2648  0.076548567  0.081048308 
  443000    1380.9048   -10525.025   -10096.814    8291.3164   0.08086295  0.081047353 
  444000    1374.6086   -10523.061   -10096.801    8337.4832  0.079182807  0.081037791 
  445000    1373.0527   -10522.567    -10096.79    8383.7175   0.08254311  0.081045471 
  446000    1376.2261    -10523.56   -10096.799    8428.4741  0.085861553  0.081069918 
  447000    1392.6019   -10528.659    -10096.82    8473.0811  0.091394155  0.081122061 
  448000    1345.8117   -10514.121   -10096.792    8516.1487  0.090020699  0.081166777 
  449000    1373.6646   -10522.771   -10096.804    8556.9666  0.083570262  0.081178795 
  450000    1375.0726   -10523.217   -10096.814    8598.5539   0.07655106  0.081155771 
Loop time of 36560.7 on 1 procs for 200000 steps with 2400 atoms

Performance: 0.473 ns/day, 50.779 hours/ns, 5.470 timesteps/s
98.0% CPU use with 1 MPI tasks x 1 OpenMP threads

MPI task timing breakdown:
Section |  min time  |  avg time  |  max time  |%varavg| %total
---------------------------------------------------------------
Pair    | 36401      | 36401      | 36401      |   0.0 | 99.56
Neigh   | 134.98     | 134.98     | 134.98     |   0.0 |  0.37
Comm    | 11.382     | 11.382     | 11.382     |   0.0 |  0.03
Output  | 0.0052976  | 0.0052976  | 0.0052976  |   0.0 |  0.00
Modify  | 9.9158     | 9.9158     | 9.9158     |   0.0 |  0.03
Other   |            | 3.574      |            |       |  0.01

Nlocal:        2400.00 ave        2400 max        2400 min
Histogram: 1 0 0 0 0 0 0 0 0 0
Nghost:        4851.00 ave        4851 max        4851 min
Histogram: 1 0 0 0 0 0 0 0 0 0
Neighs:         0.00000 ave           0 max           0 min
Histogram: 1 0 0 0 0 0 0 0 0 0
FullNghs:      234400.0 ave      234400 max      234400 min
Histogram: 1 0 0 0 0 0 0 0 0 0

Total # of neighbors = 234400
Ave neighs/atom = 97.666667
Neighbor list builds = 9693
Dangerous builds = 0
print           "Running average thermal conductivity: $(v_kappa:%.2f)"
Running average thermal conductivity: 7.79

write_data	Therm_${Tsim}_restartpoint.lammps
write_data	Therm_1400_restartpoint.lammps
System init for write_data ...

Total wall time: 22:55:43
