LAMMPS data file via write_data, version 29 Sep 2021, timestep = 450000

2400 atoms
3 atom types

0 22.680307786739704 xlo xhi
0 34.020461680109555 ylo yhi
0 45.36061557347941 zlo zhi

Masses

1 18.998403163
2 6.938
3 22.989769

Atoms # atomic

531 1 1.6741607379538013 3.325411284144594 1.180052914813989 0 0 -1
1076 3 0.5659609791119297 3.4176397807587686 3.058205065280752 3 0 0
1802 1 4.004260166359611 0.5579492041989783 0.6457847872448997 -3 0 2
2094 3 3.93859609372881 2.78783728309036 1.1274468645968265 -2 3 0
926 1 5.868999246963514 3.0278965566406946 0.4830237737363484 2 0 1
154 2 6.372541974458003 2.445177064227174 2.2354278021265133 1 0 0
1804 1 7.480983226607598 0.4853639606780159 1.812453952228772 1 0 1
1136 1 4.762973316435558 1.7661748179019634 3.4023636959527055 3 4 1
1471 2 9.82799344746641 2.3904924921661603 1.8147357897727638 -1 0 1
520 1 10.894839313817661 1.7682145207978077 2.874810442598607 1 1 0
509 1 8.348220008573627 3.3493701936246114 2.221932607843817 -1 2 -1
416 1 10.023341689135254 1.7464222128078934 0.03658250242962494 0 2 1
2272 2 11.665765194899485 1.355065468848392 0.44767919892800606 1 0 -2
1279 3 13.813821888199751 1.9293132302346934 2.7057594275589305 -1 1 2
716 1 12.702568952892562 2.607854916969598 0.49237165539349687 0 -1 1
2104 1 15.046041187855916 0.4954305192491623 2.6172228938325697 0 0 1
54 2 16.59055311934919 1.9972437849663025 2.817354145883965 3 0 2
2324 1 15.211069053562836 3.6227076363717843 2.015941833138672 0 1 0
1645 1 17.382949088877602 2.053469043825155 0.3110643509036105 0 0 1
1069 2 18.207833735760772 0.33509111489684007 0.6354060870647064 -1 3 1
2031 1 17.877843848383996 0.2066138291794229 2.444322537844324 1 0 0
242 1 18.38153564932927 3.4929564111837563 3.061181849807503 1 1 0
2386 3 15.418775067106548 3.192031130270756 0.11134228312001794 0 1 2
1234 1 21.091286155291467 2.5649464957581745 2.401659413016653 -1 1 3
494 3 21.262656026787933 0.18730198919404606 1.999092346231203 0 1 -1
1697 3 19.502248221579215 3.203279578300525 0.982080085431407 0 2 1
318 1 19.924839793554053 0.777600955305986 0.47774174524402985 1 1 1
2186 3 22.292759874266405 3.534238943826264 0.3440337663174944 5 0 1
2166 2 2.2066198569243825 6.43891729446964 2.394461877547177 0 1 1
424 1 2.054668441854795 6.895226182426743 0.598803372430529 3 -1 1
16 1 3.775584411697353 5.034178621180472 2.4999701625465556 -2 1 -1
1135 1 5.7248813879001474 5.978186163699261 0.12955197073891123 4 1 -2
856 2 5.296172467129995 5.759217084406031 1.8191306435825945 3 -1 -1
37 1 6.918524531458621 5.912950334851026 3.272198637539885 3 1 0
456 2 7.4307571388761495 7.493596595561688 3.19112807266806 2 1 -1
422 1 11.185859644992124 7.277531197318513 3.379884835892238 -1 -1 -1
1679 3 9.199485945889183 5.105732786844103 1.431046846370302 3 1 1
2331 1 11.66251549652426 4.266455104201156 2.9677482477434727 0 -1 1
1811 1 14.34925832976502 6.079441607624088 2.9644876313771755 0 1 1
885 3 13.124627881434623 4.742036906635387 1.3185490274694442 1 -1 1
1051 2 12.808220755764587 7.3884777465422316 2.520377429380204 1 -1 1
1999 3 14.754714709668232 7.411336699142293 0.5223271160244634 0 2 0
112 1 12.808064288068891 6.960210524231224 0.8484016079293039 -1 -1 0
797 3 16.383534633127802 4.759215754041539 3.3811860400609226 -4 -1 -1
1395 3 20.53946245272005 4.284070919091237 3.275055598264222 4 1 1
1544 1 19.92554978220336 6.572834349713138 3.7793109729863894 -3 0 -1
725 1 22.66037147669085 5.6490482420696875 2.9892221112434996 3 -2 -1
1469 2 21.487038974109765 6.935723173097609 2.440166422203094 4 -3 0
1416 1 20.612982430639825 4.866603444215567 1.1163850735230387 -1 1 1
903 1 3.0139908004794727 9.097254028880005 3.146104325281498 1 -2 -2
1497 3 1.4889153659847212 11.328069868789155 0.9690307911236886 3 0 -1
482 3 0.8389289194115566 8.631479395441763 1.1257291431290102 0 2 0
2101 1 2.549514607381383 9.738135722421482 0.44168943017476037 2 0 2
1987 3 3.925633064525197 8.669473319464007 1.3507637344391041 1 1 0
899 3 6.754209008209624 8.033003561202134 0.32539063282155944 0 0 0
2027 1 5.456196350292921 7.694033317099251 2.5067286902122325 1 0 1
1008 1 6.026209676940251 9.982998572923426 0.12390387520899522 -1 1 0
1794 3 5.0434290994433315 9.784584586032166 3.5039750498130733 -2 1 -1
1447 1 8.69397847971032 7.9302762047803945 1.2893270574192264 -1 3 1
1779 3 9.451731743936007 8.962481431455878 2.856042585764275 -1 2 2
1337 1 10.131178361743402 10.86556530359961 2.253398708432052 1 -1 1
283 3 10.778211296193804 7.701117247681653 0.6021926122292152 -2 0 -1
556 2 11.93315442962752 11.111760937560673 2.3800521698833594 -3 2 -1
2046 1 12.498499312767297 9.433724438097856 2.4671654056737804 -2 1 0
1168 2 14.408112266455097 9.884737388277122 3.1607024759649303 1 2 1
536 1 14.759319493158943 10.244668137778419 0.724567198601808 -1 1 0
2381 3 18.42468856770743 8.082607686225721 2.875637455721075 -3 1 1
1845 1 18.003396113281422 10.384125583644074 1.35927676691661 0 1 1
752 2 16.375621375343716 9.890403511063166 1.6721248281413352 4 -3 0
629 1 16.01181193429687 8.70888288151025 2.7373859184361007 1 0 0
2239 1 17.359090411086967 7.776628034566768 0.3295648158903875 1 0 1
2148 1 22.169382649132306 10.685541458113645 0.8648945863465946 2 -1 1
1635 1 21.21303722488075 8.035867565858153 0.8584930201865923 -1 1 0
1212 1 20.480025906059094 11.322948676700353 2.5809200105898493 -1 -1 0
2196 3 19.980107351243326 10.018923524935397 0.6854895724393589 -1 1 0
2256 2 2.3278459580637176 13.639209305543428 1.837154031116632 -2 2 1
1127 1 3.2081031945444516 11.948151139834506 2.473327722903873 0 2 -1
1131 1 0.9543942884700314 13.555134112040104 3.210446257447831 -3 1 0
1702 1 1.1889911931778192 13.589907048182882 0.5259927766735863 1 -1 0
2180 3 4.590768434765648 11.618790210847566 0.5477492460826918 -2 0 1
1496 3 7.487007244506958 11.5868697157504 0.798873688884474 -2 1 1
1549 1 6.02741079374955 12.292119205490401 2.4103197306754818 2 0 0
1877 3 5.039915185392814 14.108798274500304 2.4004604247183514 -1 0 2
127 1 4.320481667285643 13.70143033074879 0.09017525259575501 0 1 1
263 2 6.208775457537627 14.214445921990352 0.32636719434297135 -2 2 -1
589 3 8.469207745660523 11.619171007401514 3.581300364815545 1 2 1
380 3 10.413906937467164 13.441875978783923 2.0610934248807276 2 1 2
2126 1 8.039745261937403 13.601385269128333 1.1214345821684364 2 0 0
1552 2 13.725793254514503 12.792653389407091 2.993980616109456 1 2 -1
647 1 12.620907826544215 12.98661094542071 1.7029523083826037 2 0 0
1640 1 15.357477397953094 11.471261302516972 2.80258898436859 4 1 0
373 2 16.185071014261293 13.014974300177403 1.5417599784732896 -1 0 1
2007 1 15.769776079698431 14.43042968287498 2.4245237473022763 -1 0 2
2009 1 18.273176702606975 13.581720152508222 1.4407265849546926 -2 -1 0
1371 2 18.781468557391392 11.783511216643154 2.2347464557016825 0 1 1
766 2 17.809361663088023 14.363226333738323 3.0497367078002706 -1 1 1
1786 3 22.17121313277105 11.831533813681972 3.5832815973767698 2 1 1
2277 3 21.743364219372467 13.929044329816529 0.7208344098127937 -4 0 1
893 3 1.5613853785310716 16.857998932680037 1.7204291468014858 -1 -2 1
446 1 2.7712973614172136 15.702208776914127 3.023486597370538 2 0 0
1509 1 1.7502700467324535 18.72358712485663 2.2295465109573684 1 0 2
1220 1 2.9824176617344884 17.28330884477881 0.13608720201878502 -2 -3 3
815 1 5.788361390422985 15.697184222086593 0.9719953683098809 -1 0 -2
790 3 4.961877678158049 17.827539721905318 1.11550589562433 -1 0 -1
2136 1 5.420217250522641 17.760149748277257 3.415728015133668 1 -1 2
2131 1 7.392489743343966 18.327485089478294 0.8032176900293813 0 -3 -1
1682 3 7.915165207466359 16.134296899274318 1.6403489244314968 -1 3 1
1012 1 9.63781352808641 17.35896563635552 2.6600526884308806 -2 0 1
2210 1 10.940077929433262 17.59582938671565 0.3396788940982078 2 0 0
1388 3 11.942250334266166 17.346961994351016 3.5186536861968367 1 0 0
1983 3 14.643786886245303 18.856850617478788 1.5528229824477955 2 -2 1
1720 1 13.976550788426382 18.387281886641933 3.610900398234839 0 0 2
2167 2 18.807941638374288 18.29220102636435 2.7906360942166084 -2 4 -1
383 3 16.27299141843857 15.560091537701663 0.44161418860846974 -3 1 0
1545 1 18.564309493914475 17.738043554076683 0.6088346474551534 0 -1 0
619 1 15.284563878063377 17.31067906946411 0.1917008052226351 1 0 0
1752 2 21.322637299899736 15.956035037905101 3.4892411383142323 2 -3 1
1914 1 21.898540238838386 15.792989645022942 1.714951223034406 0 1 2
1110 1 19.274881429274206 16.839492559649607 3.4512119351367594 3 -2 1
577 3 21.58990509060992 17.520718582395826 0.8675941553664771 -2 -2 1
104 1 3.717512935898611 20.050151102759052 3.445935616274201 -3 -1 -1
2368 2 3.0725304377127047 19.880462088830775 1.6850090922740155 2 -2 1
1393 3 0.11112932994346605 19.843247256308416 2.8417929352684377 1 -1 1
1239 1 2.0734474258926316 21.357967466668885 1.1638178439408142 3 0 2
280 3 4.203939661536452 22.084688061351066 2.2617703843657737 2 -1 -1
17 1 4.635279358912264 20.323155943963926 0.35203575916426305 -1 2 -1
2318 1 6.264032090891998 21.982433007243888 3.233162581230948 1 1 1
1900 3 6.907707299339066 19.496517473703094 3.258008613382301 -4 -1 0
1797 3 9.99332110029102 19.29526639702713 0.7384396723924859 2 1 1
1490 3 7.979876947510933 21.687750591470717 0.9103542183933089 1 2 1
1201 1 8.816804290329145 20.750806018241256 2.6116082547552546 0 -1 0
390 3 9.878093221134252 19.24565824981251 3.6502872970993376 1 0 0
534 1 12.180422409017915 22.4584500534484 1.6865157494807508 1 0 0
214 1 11.841670690970822 19.596156903883337 2.3604953743502644 -2 1 1
2068 2 12.215878690966909 21.363441635754747 3.2843692952386805 1 2 3
1282 3 16.104397911007187 21.47905927793677 0.10108761330444338 0 0 1
936 1 16.748696767429276 20.01693663334802 1.8510295087657993 -1 1 -1
1558 2 17.056642973567005 21.865408013027864 2.8113767028487175 -4 1 1
115 1 22.13668535563327 21.804920908957733 2.6420374386993877 0 0 -1
1315 1 20.357935582353765 19.08374121604769 1.9729933597353697 1 0 0
681 3 20.086383013067053 21.276097801234567 2.2698589270321015 3 -1 1
730 1 19.73788916931901 21.078137251675518 0.04696721464504046 0 -1 1
1050 1 2.1982871078748727 26.33321440831189 1.204293562809474 -4 1 1
1296 3 1.6236379596531547 22.725271757956364 3.0361344560076873 0 1 1
1550 1 3.454684141905002 24.504884283096686 2.7143798213233845 -2 0 1
1161 2 2.1400106235559377 25.63732309542513 2.985301447010064 -1 0 1
2299 3 4.262300384436474 25.52987758036224 1.1405833886688723 2 1 0
2065 2 6.650299543419977 23.371154837230986 2.3157228406652464 -4 -2 2
1035 1 6.6978608031527385 25.328555003601007 3.0758359709194107 -1 0 0
2265 2 6.812254028206867 25.87214543197213 1.3754601181361858 0 -5 1
831 1 5.737293069552515 23.41883254536109 0.9104345410661869 1 1 1
1580 3 8.793398241223281 22.697608250920894 3.3641149873299097 -3 0 0
2298 3 10.42306852369502 24.00806980493762 0.4531045588731873 -1 2 0
2146 1 8.598487917042487 23.695547379437485 1.4165504044365904 1 1 2
1944 1 11.33088864492945 25.891864934018592 2.3599352491276284 0 -1 2
453 2 9.439532967450113 25.024111998428218 2.353475379312335 -1 -1 0
301 1 14.618162927500514 25.633707646343314 1.0264731457276444 -3 -1 1
1596 3 11.88797071227222 23.9108084061573 3.3564339392083626 -3 -1 -1
329 1 16.174948800406266 23.147652505732697 1.9732384676282315 0 -1 1
1790 3 15.226334053040093 24.431757633648925 3.249667876197395 -2 -2 0
625 1 19.09340663221852 22.69436490986575 3.1051984770090924 3 -3 1
2060 2 18.948149687942426 24.415521225134796 3.599360885661837 0 0 0
1119 1 19.530963340873928 25.248070656951327 1.3910650792493053 -1 -1 1
1017 1 22.263896478492537 23.941455969712578 0.6572014590566203 -1 2 1
2082 3 20.425792916646127 23.163814266815194 0.9118589360827551 -3 1 1
2283 3 21.65167001404653 25.532118573084603 2.182635837678245 -4 1 0
47 1 1.9430944843098268 29.63898505141502 0.8438434768426794 -1 0 -1
2269 2 2.660294295696047 27.96876038698712 1.21349470932534 5 0 1
376 3 4.74575991281345 29.817756563801986 1.9666820443895978 2 -1 0
1851 2 6.555140917090769 28.327524390746987 2.627750528898481 -1 0 1
2219 1 7.2779054965146495 29.748211365337657 2.1802064889795876 -1 -1 1
121 1 5.136713215459345 27.323948354468104 1.9644499027116682 -1 -2 1
1884 3 8.708658298819914 30.138428112962274 0.08525361672735277 3 0 0
319 1 8.15178781973647 27.23182455963845 1.9808498404558288 1 0 1
2363 2 9.005240544464147 27.508691293817098 0.457380989490442 -2 -2 1
192 3 10.53043592761523 27.948954061933016 3.2313251825007114 -1 -2 -1
1243 1 10.265555254336002 28.86264656708557 1.25636640675217 2 -1 0
1054 2 8.56717326880326 29.633143488922663 3.0358380340774245 1 0 0
2117 1 12.764316753583289 29.693044002895245 2.983932642120949 0 -1 1
881 3 13.140391699891524 27.503567750034513 1.5582556011536286 -2 0 -1
2159 2 14.619846308508968 29.446542336942425 2.630387281061394 2 -1 -1
541 1 14.598537112860615 27.418281319162652 3.4158948237466022 2 1 0
211 1 15.115736316365957 28.897354352935714 1.067732428754324 1 2 -1
1085 3 16.30962797987941 26.95895789316331 1.109848664027939 -3 0 0
620 1 17.97964973055399 27.585316756648417 2.7695728008422247 1 1 -1
1157 2 22.1849539961835 28.610231918291746 1.9769780675982458 -2 -1 -2
2279 3 19.44947016796371 28.36710653164842 0.3116066474094919 -1 0 -1
1540 1 21.980902179392068 27.567812121706243 0.5114982082894511 -2 0 0
1313 1 20.75491726596676 29.538626170162356 1.8501637595539642 1 -1 1
2021 1 22.33529113125586 27.631678268274513 3.2908955120548984 -2 -1 1
809 1 3.413321964371528 31.586264767533855 2.607019013893674 -1 0 1
160 2 2.593741832196763 31.778475827071343 0.7179188111357581 -2 -1 1
2328 1 0.13967121336589283 30.64072136079485 2.9444010511180503 4 -1 2
731 1 1.1294670801626396 32.68846417472428 1.1082567626267013 -3 1 1
396 3 1.6488719525328202 32.275645391569164 3.341999815715132 3 -3 0
1600 3 4.949322513692529 33.50002418432814 2.2166059680429173 -3 0 -1
488 3 8.43551251689015 33.39697534411745 3.3050009018675066 0 -2 0
1879 3 11.089632391893616 31.2877145853919 2.3111654832497446 -3 2 1
867 2 8.221209671479283 33.88840163932101 0.3311110533712462 3 0 -1
2303 1 9.29584502559407 32.391760594667325 0.6806958302238019 2 1 2
1311 1 9.785816096641941 30.852323369085916 3.7011127096275507 1 -3 -1
103 1 13.020082594858602 32.61243816204047 2.7334701770056746 2 -2 -1
1071 2 13.482166180733953 32.50706499786558 0.6497031486872631 1 -1 0
1711 1 12.594480850438206 33.83604395940334 0.06633689774018064 1 -2 0
2182 3 17.141969023585837 30.75898100980344 2.2072080339492506 -1 0 1
1616 1 15.166215060170702 32.06244395900739 0.8093701035849427 -2 2 1
1064 2 15.1702662613679 32.923194637031706 2.5488329824620046 1 -3 1
2019 1 16.032706660761722 31.441020856026423 3.7282798671320068 0 0 0
339 1 18.362506643347032 30.478860435329743 0.1587692304098606 -3 -3 0
2162 2 19.779962087095036 30.888373722510014 2.1902783301406386 -1 2 1
950 1 20.743665870834285 32.17744883596712 0.96750750750188 0 2 -1
2179 3 22.39183353568279 30.820477331733205 0.6675733197282054 -3 0 2
1232 1 20.74909465809254 33.46353042768342 3.753004697714932 -2 -1 1
1244 1 3.2005873901163957 3.4168853642248656 5.128311338341045 2 1 0
2383 3 3.093810109166239 0.9491709156251469 4.365953077411974 1 1 0
1624 1 0.627405392969927 1.5950617648385133 3.844057521801868 -1 -1 0
1780 3 1.756723720591994 3.0006848514394107 6.4893317097566605 1 0 0
1134 1 2.0444418374810134 0.9568230134621286 6.903384183345991 0 1 2
796 3 6.1182208388827215 1.055242233932574 5.074909758583742 0 -1 0
1128 1 6.671865871654266 3.1837830998845194 4.8355107143675475 -3 -1 0
1603 1 6.842240656259439 0.29556487097701506 6.858493666853133 -4 0 1
1058 2 4.80066546691823 3.526914788641037 6.193331186701377 2 0 0
2128 1 4.802854705746975 2.0805688053568883 7.493576222928504 -1 1 -1
963 2 6.664067450809176 2.3146656502356517 7.105898088334293 2 -1 -1
1856 2 11.329961716804496 0.6009998412234171 4.317521999824163 0 0 0
447 1 10.18603616265714 1.976922953480538 5.455987588279646 -2 0 -1
1288 3 8.759800505649103 0.6500895904227911 6.244456101629253 -3 -1 0
869 2 10.059556123312428 3.4061650006283335 4.295966683761269 1 -1 1
1778 3 12.501053562687458 2.072361394939006 6.642857977124022 0 2 1
1607 1 12.692932919056725 0.40993151144815 5.392248406275768 0 2 0
426 1 14.459547807215303 2.716089146630638 4.4472145740143585 3 1 0
2362 2 15.033285342804165 2.965388924980038 6.20074274657266 4 1 0
194 3 15.016661506134682 0.3335191654265341 4.993483232818983 2 1 -1
873 2 17.01427442264235 2.017008222705914 6.835266799128438 -1 0 0
412 1 15.34658556201913 1.3004736527852325 7.34104996732214 -1 2 -1
2132 1 16.64313417879664 3.499178833977014 6.294109206949467 1 0 -1
513 1 17.184345702350914 0.5203919773177547 4.841840992842876 1 1 0
1089 3 19.176790611619495 1.1881072760705398 4.281812026035057 1 2 0
2250 1 20.033468141010314 1.382111928227866 6.176974704372597 -3 2 1
2157 2 20.96213778652609 2.734486457600735 7.364389316431655 1 3 1
2261 2 22.35476987755602 0.6082492148164037 5.087201001357769 -3 1 1
451 2 3.6014513419627567 4.788622250286318 4.084619725706615 -1 3 -1
1015 1 2.641725416031213 6.609665409608088 4.264574178647927 1 0 -1
60 2 3.049707795114633 6.055855537634028 7.00663402761214 0 1 -2
776 3 0.07396037826777047 6.212529720101545 5.041129290545984 1 -1 -1
849 1 4.5120883355172134 5.389634260773785 6.026431370746825 0 2 1
677 3 6.402020784606298 6.407655587310502 5.637163136027469 1 1 -1
1675 2 7.566318788809393 4.44795331832674 4.266539561694508 -1 2 -1
1362 2 11.164733188660378 5.599288374577501 4.140933293005222 -1 0 0
227 1 9.26143412584042 4.831644449899143 4.8550657834541875 -1 2 0
293 3 10.083718206384265 6.459135747054743 6.538916353179061 -1 0 1
745 1 8.114378879511193 6.610875698615878 7.490305378516666 -2 -1 0
2095 3 13.822949628707441 4.799592351812406 4.850152176533867 4 2 1
1413 1 14.956400887517075 6.049019109530533 6.601199682205656 -1 0 0
517 1 14.091921670874749 3.7813733328443244 7.539040298144547 2 2 0
1415 1 12.030453336347394 5.91250924501304 5.929388120813795 0 1 0
2122 1 17.439339401562997 6.478286721265062 4.25651347724079 -2 0 1
887 3 18.420589634139244 4.433029782733909 5.465301835021098 -3 -1 1
1141 1 17.841669783581338 6.5276722536426615 7.553284940967517 1 -1 0
294 3 15.494459312241666 7.264171077231134 4.276639937755725 3 2 -1
158 2 18.98622624411246 6.977379078097491 5.38483292507339 2 -1 -1
2334 1 20.1920586028914 4.3014511478746495 6.556117056051305 0 2 1
640 1 21.012276866228568 7.171334290356168 6.577798824100802 -1 1 1
1658 2 1.3564729770818558 8.87945256221272 4.637333098290562 -3 -3 2
1124 1 1.949177939305689 11.009356640069354 5.06916042131867 1 -1 0
2343 1 2.0257112266054014 8.296574063393708 6.218527172166629 2 0 -1
1955 2 3.73647483419819 9.941572309895848 6.480965841835177 2 2 1
2073 2 1.2452247252934365 11.163468910951234 6.708474695519728 -1 -2 0
2052 2 3.896045707774645 7.779552459096996 4.746200930005969 -1 1 0
1419 1 5.083375436078555 9.087908456797225 5.370229471416494 1 -1 2
1587 3 6.648573261359999 10.43475876518244 5.854242104033771 1 1 1
507 1 7.1126244064650805 9.554315234935094 3.785080042726691 1 -1 0
909 1 4.133853342948517 11.051381604981568 7.373755138982363 2 -2 0
1214 1 9.186809383182284 7.936023441788007 4.728763735212681 1 -1 1
79 3 9.53457904162983 8.702962889997938 6.621550088709034 1 -1 0
1318 1 9.77792222703197 11.26085373265811 5.7245067742976925 2 1 0
2004 1 11.65454418210301 9.2200234955443 6.388525618645503 -1 0 1
504 1 13.715589277867338 8.462407932020461 4.7820691479121775 3 1 0
2369 2 12.82590945152235 7.623904026510975 6.078961012112896 1 0 0
551 2 12.031679709926859 8.990868605585602 4.220376062324582 1 -1 -1
672 2 17.595451520189474 10.481962675602558 4.765206702760221 0 0 2
1492 3 17.315134484696426 8.317129422120013 6.90305605455158 -1 0 1
1520 1 18.607894830139454 8.712764605525775 4.882058825987906 2 1 -1
837 1 16.435305687254576 10.379023506595624 6.34979113325922 -1 1 1
1047 1 22.514363312401713 8.590266720033958 3.844621536994392 -1 -1 -1
890 3 20.788547085342383 9.472614228595402 5.267120136107278 1 -1 0
2003 1 19.446840495258122 10.296730003129074 6.962237934778914 -1 2 2
1464 2 1.4261760854711383 14.917664735406605 4.096011833195309 0 -2 1
348 1 3.487603594641151 13.70019531681524 4.855708876151511 -4 2 0
563 2 2.5427181063220567 12.437310058482241 4.157279528095228 1 1 2
763 2 3.0208586393674124 14.26874992335815 6.523451640847706 -2 -1 -1
1189 3 5.549564771940728 13.053759181990614 4.446214571425275 -1 0 0
2319 1 7.237467646292068 12.593676930385595 5.59869448119948 0 3 2
1926 1 5.26417326054322 14.229429072251241 6.750634762986829 3 -2 0
565 2 6.887597688030329 13.20500681106838 7.152378176968197 3 1 -2
1801 1 9.446280509535432 13.93875903278082 3.966005497586252 4 0 0
951 2 8.832428934008227 13.141358926677832 5.4131452875701305 1 -1 1
953 2 10.75809947009138 14.51354013651069 7.061501837354072 0 -1 1
1435 1 9.130655752707389 13.710603158152276 7.279300804446125 -1 1 1
317 1 12.673267857772084 11.409050107611415 3.959014201170984 2 1 1
226 1 14.270561910007292 14.246902985365617 4.270335794917793 0 0 2
1475 2 11.516052075536308 11.777166833059667 5.609409912279282 1 0 2
1269 2 12.962368774702407 14.588327331501445 5.208656116234677 -2 -2 0
417 1 12.091976550538812 13.430409377568868 6.627367137408387 -5 2 -1
1423 1 17.968060328520714 12.21232856279081 4.084782839984124 -3 2 1
1889 3 15.492692640249755 12.547999594029896 4.838667822950546 -2 2 2
13 1 17.59446042217855 15.119068859853177 4.6833954497724655 -2 0 1
583 3 17.372742975819037 14.919326515250194 7.0896806039417815 3 2 0
484 3 22.24496003183071 14.100154250755091 6.513208824744623 -1 2 2
1429 1 21.708536025564573 11.788247194835376 5.600720877360575 1 1 1
295 3 19.487853072495067 13.147102058373793 5.239558315484526 0 1 1
1945 1 20.657958033510294 14.839301528988841 4.862487966326568 1 1 1
1149 1 0.2789558023940011 16.702427969590897 4.116194825968666 3 -1 0
803 1 1.2657778904995534 15.12066358388509 6.345297720251574 3 -2 1
1209 1 2.693780834726617 17.74039652015691 5.496209733599758 -3 -1 1
1582 3 0.7660983141408407 17.39190806712781 5.905833937981089 -1 0 0
1766 2 3.1819059690162086 18.217405775712596 7.259249009703219 5 -1 -1
1890 3 6.202103429278018 16.4020211585684 6.427476824055601 0 0 0
1593 3 4.376742175092623 16.129025944775343 4.2641802207269635 0 2 0
321 1 6.46096766134589 15.194565446189348 4.21000252605498 0 1 0
925 1 5.051403201961105 18.191898866829238 6.867051487939198 0 1 0
1950 1 11.161179559813322 15.27320583949072 5.130814504312569 2 -1 0
2084 3 8.450875646390969 16.183437939256347 4.212646684369996 0 1 1
22 1 8.196667679207188 16.519059486134424 6.744197876001655 0 -1 -1
2300 3 9.498016677850273 18.58614150644255 6.7137757189243406 2 -1 0
2312 1 13.484871776725193 15.91030690808696 6.111680436140879 1 -1 0
266 2 13.190574346349425 18.87319020777245 5.604847584235945 -1 -1 -1
2028 1 11.359452379174822 18.139980390003092 5.414977139843969 1 -1 1
2160 2 11.579306304191507 16.5436420503452 6.18597647588866 -2 1 1
1223 1 17.99232247695065 18.806309888817875 4.408595646695693 -2 0 1
400 3 15.234026338092201 15.889654633764456 4.763901851142496 -2 -1 -2
1240 1 16.69509467309411 16.950266631257627 6.093965031439515 -2 -2 0
1170 2 17.073469447881283 18.415593553114885 7.531702502488945 4 2 1
862 2 17.753343884686895 17.082752482571053 4.693941757424471 1 0 1
291 3 20.42184568505246 16.403375300926374 6.116292141088904 1 0 0
1853 2 2.062059576921732 19.163346606191585 3.96482834937492 1 -1 2
111 1 2.8479284893675185 22.417590972217585 5.189651516532455 -2 -1 -1
913 1 0.7486767063097012 19.842922841822038 4.760715608349646 2 -2 0
2287 3 1.00173950544059 21.05856448271815 6.577605384689497 -1 0 2
201 1 2.8252061240076896 20.1274413539067 7.3624498603480975 -1 1 -1
674 2 3.7733077146795875 21.187145070081723 6.170436573614957 1 -1 -1
268 2 4.5356917800247265 18.92151873252724 4.819931170323818 0 0 -2
922 1 5.695837231379053 20.901694993338992 5.604816244370114 2 0 0
264 2 5.930551284908211 19.66609621664013 7.29727685933977 -4 3 -1
10 1 10.546123249093265 22.39356702385507 4.411804296008364 0 0 0
1650 1 8.107279509415353 19.068708292721514 5.000794699556694 1 -1 1
2091 3 8.127251701632606 21.4295601947106 5.78902402024152 2 -1 2
2014 1 13.086579931350633 20.71540720859108 5.155743561789075 0 2 2
500 3 14.736430805009574 21.771785172953138 5.796651058552434 -3 2 0
378 3 11.839196960834633 22.54092997998221 6.213376406144658 0 -1 0
1986 3 15.347405804161287 19.660168497222497 4.262178892325598 2 1 1
206 1 15.245849424405192 19.696116088118917 6.476159098863609 -1 2 0
2108 1 17.83714095513677 20.10379753356486 7.330416227290549 2 2 0
780 3 18.811774415899013 20.76620200857535 5.542084971280096 1 -1 -2
149 1 16.6761057341414 21.630978648863685 4.6736212362457055 -1 0 -1
1361 2 21.062340198523394 22.24749827903642 6.945293508126347 -1 0 1
1841 1 20.851284658390107 20.520440885752187 6.952341827699095 -1 -2 -1
48 1 0.5389773976000917 24.852437050117018 3.8346058460305015 1 -1 0
978 3 2.384477435429792 24.356342719444452 6.0977990793593095 1 -2 0
1410 1 1.238400705217139 25.798935154962688 7.204468153046833 0 2 1
1744 1 0.3209710880654779 23.037255348369385 6.382635892878747 2 0 0
2198 3 4.831459233485739 23.17550493425802 4.590062230900974 0 1 1
792 3 4.86178040202196 26.11974428646115 4.5512398786911445 0 -3 0
533 1 4.525851173684926 24.421409007426952 6.232253031753355 -3 0 1
2086 3 6.610442289712022 24.82123867431926 7.113784628390012 2 -1 1
2058 2 9.578400336007928 24.642341251551258 6.212648147895293 -2 0 1
1816 1 7.890591544890419 23.4654982323264 5.41300147057378 -4 -2 0
117 1 9.851278938834396 24.910386931221648 3.978867987358441 1 1 -1
2400 3 8.112617222748636 26.252910154737734 4.567345973676927 0 0 1
933 1 8.775415245459774 25.962624627078018 7.125457841641099 -1 -1 2
650 1 11.643512979769017 24.907502968574867 7.000383913593763 2 0 1
134 1 13.667002601772559 23.487926117409444 4.559305169447227 -1 -1 0
179 3 13.537666321722321 26.31265883017712 5.296895921699361 3 0 2
924 1 17.5961542936858 24.766389356508206 4.680120367967382 -1 -2 0
236 1 17.327044398986754 23.32810640161309 7.456543857983125 -4 1 0
668 2 17.860217292231916 22.9671374541641 5.4920472186304705 0 0 0
1401 1 20.248759650741576 25.25911278864675 4.181548251745129 -1 -1 0
999 3 21.148546091275236 22.688960859053505 4.288261746787036 -2 0 -1
1834 1 19.729881636741368 22.68172904330719 5.839160414855203 -1 2 1
1800 3 20.75262281810889 24.849624103405187 6.2682153362079305 2 0 1
2379 3 0.43359352410310376 27.2001138390511 5.3575687013520215 3 0 -1
1078 3 1.8619634666063645 29.348244002444304 3.785950712347105 0 -1 0
633 1 3.0576009248541127 26.8368051836704 4.411865126508294 1 0 1
404 1 1.6235982061183618 29.503722677456818 5.710092187902829 3 1 -1
1421 1 5.501622234616266 29.14464061356088 3.902474411640216 1 0 1
694 3 4.068792486301116 28.480404615123305 5.789656041354385 2 3 3
28 1 6.3060438581545 27.343667330693453 6.152257312205256 0 -1 0
1486 3 7.327966203265403 29.599966807291313 5.218981642077755 -2 1 0
1494 3 10.165908826332677 28.03098640107777 6.835318163447802 0 1 1
2140 1 8.592496127725058 28.23667452229504 4.472694558036559 1 0 1
1973 2 12.371876225282413 29.969429709846015 4.8154369950896365 0 0 0
634 1 11.676536593904808 27.99028826287269 5.346575143409364 -3 -1 0
1568 2 15.005428006123235 27.18212511250522 7.507362228797493 -4 0 0
1592 3 13.118812586395995 29.895709500924198 7.176505553548284 -1 -1 1
1116 1 15.65568214675081 26.47973636881896 6.124668774823401 3 0 1
1774 2 16.229351299688897 27.49243602387917 4.8677272912215255 -3 -2 2
1989 3 17.931800720843277 26.858241165107902 6.858414548243845 -1 -3 1
5 1 17.110072839675972 29.06820017802011 5.441657496138114 1 -2 -1
1399 3 20.11593678797921 28.861572055422908 4.110465950538234 1 0 2
151 2 19.162951615972382 26.7390577876126 4.092681709206361 1 -1 -1
2228 1 19.774871027379216 27.54908308840026 5.647471858319131 3 1 1
2178 3 20.96627403883577 28.676692223792678 7.300727639066926 0 -1 2
124 1 1.823469085316223 31.67705135887081 7.466950668989253 3 -1 1
539 1 3.4769420190142313 33.06028892620515 5.237684832803449 1 -2 0
970 2 2.503080961684166 33.185736096308794 6.673544050426522 1 0 0
2230 1 0.837472322599876 33.0147098425781 5.109442801286311 -2 2 -1
1382 3 4.559554551355638 31.075218307303917 4.6852904664523125 -2 -1 0
561 2 6.1719325914430785 32.485141179086256 6.592116323727479 -4 -2 1
544 1 5.20182129037775 30.72451352411974 6.497727418977771 0 0 1
1915 1 6.527164978219712 33.01454912692696 4.599674343616676 2 -2 1
2340 1 9.911511132991388 33.25920430807432 4.7025943837096635 0 -1 1
875 2 9.870243608736027 31.690174861058974 5.270068108376629 -1 0 0
939 1 8.923173111878327 31.306595730866377 6.692107541716953 0 -1 1
1684 3 13.382335696716192 32.444051794869495 4.833351789656938 1 -1 -1
1604 1 14.885155492042996 32.67523165942408 6.381903468739832 -1 0 0
2121 1 14.206501389195758 30.28193610883729 5.234396946276085 -1 -1 2
220 1 11.840891452677964 31.591357194536165 5.8741868216683955 0 0 0
2200 3 11.485309702954792 33.412108845846255 6.921640664138922 -3 0 0
1789 3 18.39617163373458 32.73324878031128 4.611950730459831 3 0 3
1164 2 15.763282217334021 31.097513952482704 5.328579762636423 2 -2 0
566 2 18.155536018992 30.293863236067267 6.510420930605697 0 -2 -1
1916 1 17.73857688501877 31.95545646178377 6.722740286999739 -2 -3 1
230 1 18.992430621697302 30.90557133307526 3.9412392209009472 -1 1 -2
892 3 21.492475262889073 31.570788010680864 4.340386278100574 -2 1 -1
1285 3 22.630491179711086 31.800232923440582 6.528547704358127 2 -2 0
1121 1 21.045983601310297 30.41080540841271 6.050049363364466 -3 -2 1
2361 2 3.48842974672198 1.0525937118586153 8.595313525196687 -2 0 0
2184 3 1.2334957434220437 3.7494674100352134 9.092582724225618 0 0 -2
1535 1 0.0260913961438732 2.6698074503191336 7.890365099321917 -2 0 0
2061 2 0.7248675684572097 0.31480216206214456 7.973343671276894 -1 3 1
1832 1 1.1831459725582045 0.5078068038151199 9.825642475265374 -3 1 1